         118
Lattice="   9.6100560000000002E+000   0.0000000000000000E+000   0.0000000000000000E+000  -4.8050280000000001E+000   8.3225519999999999E+000   0.0000000000000000E+000   0.0000000000000000E+000   0.0000000000000000E+000   1.3116254000000000E+001" Properties=species:S:1:pos:R:3:QM_forces:R:3:FF_forces:R:3 QM_energy=-3.5822296969542069E+004 FF_energy=-3.5822576762794706E+004 pbc="T T T" 
O       2.9775792653632815E+000   1.0490209739755627E-001   1.1427194163860621E+000   1.9354466438969191E+000  -4.6443559810621077E-001   4.1909481770433805E-002   1.8827921564894567E+000  -4.2883298286851851E-001  -2.9676355042165276E-002
O       8.6940327163997804E+000   1.3095859762132942E+000   3.2052985970947301E+000   5.3572841148648900E+000   2.3595265178223798E-001   3.8453425258911458E+000   4.6537403891093980E+000   2.8329311076646030E-001   3.3258653181394657E+000
O       1.6132041271777877E+000   2.8515797812997730E+000   3.2731558883115097E+000  -1.4369001155175747E+000   7.7886133548232939E-001   5.6364926901245405E-001  -1.5681355772980325E+000   7.0921495210604424E-001   5.7939363929966081E-001
O       3.1875630993757209E+000   2.7339722601691365E+000   9.9527037606372326E-001  -2.7729236169783125E+000   1.3385362268184431E+000   2.1872439267745762E+000  -2.1645402493680130E+000   1.1009284813828675E+000   1.5138896885926383E+000
O       9.1887004584807752E-001   1.3960976931756923E+000   1.1015955013478174E+000  -6.9506105690680398E-001  -5.9300451070394744E-001   1.0578684882821027E-001  -7.0928779423164090E-001  -4.3341207346137223E-001   2.4525781838543620E-001
O       3.8717223864070336E+000   1.3868292649179239E+000   7.6267652485701740E+000   6.3014638044738336E-001   9.4367744211776949E-001  -6.3681283902920627E-001   4.1506218789901083E-003   1.4400889285952709E+000  -9.5357660568475455E-001
O       6.7938355924388616E-001   1.4905163000054531E+000   5.4892153529516756E+000   2.3339229725535507E-001  -1.2921757372186939E+000  -1.0362056130489283E+000   4.4622149810133943E-001  -1.2380546022200067E+000  -5.8062854711142708E-001
O       1.5785670855804526E+000   2.6191053817219676E+000   7.7496404007175350E+000  -1.9013045241522772E+000   1.7319555715887067E+000  -3.3380636713552416E+000  -1.3982316156205712E+000   1.6078927506581306E+000  -3.0368274377925615E+000
O       1.7888820656911406E+000   8.4907922417397363E-002   7.6099604007742077E+000  -2.7300782409622828E+000  -3.0356010876565420E-001   1.5682246095256644E-001  -2.7307158185960967E+000  -3.0587724968774699E-001  -1.1783357935346692E-001
O       6.7070384089230406E-001   4.0297174292110896E+000   5.4926822069023338E+000   5.3004102164664946E-001   2.1166473718026606E+000   5.8426193625599843E-001   4.2973226288861854E-001   2.2965115299798518E+000   7.7094876337031631E-002
O      -1.4950799295834218E+000   2.8546306464933844E+000   5.3796427427407592E+000  -1.7076896607282250E+000  -1.6409080225548711E+000   2.9024243400827778E+000  -1.5490154030604846E+000  -1.3590389621663410E+000   2.5590662389315302E+000
O       1.3995765817895114E+000   2.7996545596468456E+000   1.2002758897566482E+001   1.4452343378926136E+000  -1.9214523896149993E-001  -2.6769925210301920E-001   1.5741288376864246E+000   1.4419089071954344E-001  -2.2345966732402106E-002
O      -1.6130677180701776E+000   2.8759016022412225E+000   9.8726156638199143E+000  -1.4128063878688426E+000  -1.3334828585761436E+000  -9.2248398497783168E-001  -1.2503202059289320E+000  -1.5630580400193212E+000  -8.5471691495037572E-001
O      -5.7139596701625628E-001   3.9509910960847359E+000   1.2015694374620976E+001  -2.7406847543045538E+000   2.4043247543111055E+000   1.6421975750123807E-001  -2.6527588483458961E+000   2.3486213856857590E+000   5.2977620880401688E-001
O      -6.5362737565007911E-001   1.5417227637285551E+000   1.2097125057242261E+001  -2.1784426991616055E+000  -2.3788579616930843E+000  -2.0564659440364688E+000  -2.3350797502952658E+000  -2.4799751432830224E+000  -1.8100657895920726E+000
O       7.4421813554543959E-001   1.2190983043442212E+000   9.8685494381173591E+000  -1.6063990275006446E+000   9.3227715773349218E-001  -1.0346497903678788E-001  -2.0694519906217606E+000   8.3635586197462930E-001  -1.1288469129714765E-001
O       3.2700916271209461E+000   8.3356711899571265E-002   9.8302313277958007E+000   1.5114298682118574E-001  -1.7256508712154666E+000   2.0316440251178136E-001   2.9396620132957740E-001  -1.7595194235592400E+000   6.8769526832935968E-001
O      -8.8890316106221101E-001   4.1896057322830584E+000   3.1917436429277939E+000   1.7635273495555234E-001   1.0059108799636996E-002   2.2712622890302896E+000   1.8421512499822226E-001  -1.7439445272175416E-001   2.4709951092195741E+000
O       7.2296212246483305E-001   4.3155086633549375E+000   1.1231788546434482E+000   1.3656505610192946E+000  -9.4535598325917214E-001  -1.2758460454640713E-001   1.3511143144699831E+000  -1.0520145611021605E+000  -6.4556834468868907E-001
O      -3.0958053872618390E+000   5.4025913878541543E+000   3.1903831962121005E+000  -1.5262819806900629E+000   2.9052021661820016E+000   1.0990259033032006E+000  -1.3771051459458901E+000   2.9992020424759795E+000   1.2776526707098856E+000
O      -7.5781863426448337E-001   7.0180242793429723E+000   3.1787341390194110E+000  -9.4782488656774788E-001   1.6053675801668261E+000   3.0622429086221268E+000  -1.1026767710749643E+000   1.4791151187473648E+000   2.7332864566316721E+000
O       6.9967345928161206E-001   6.8004084044376896E+000   1.0584220167536762E+000   5.0570101100639447E-002   2.7095295653877578E+000   2.6150878444055761E+000  -1.4897595027075411E-001   2.4252407012511723E+000   2.7285581060434629E+000
O      -1.3981171190481483E+000   5.6049138417922881E+000   1.1091371675959307E+000  -1.5729354628053658E+000  -9.9771934185941236E-001  -9.9317372980189578E-001  -1.2650614797074158E+000  -1.2679364123170982E+000  -7.5877316583617893E-001
O       1.5408765801324618E+000   5.5481645803669837E+000   7.6603636915907289E+000  -1.4657355087512605E+000  -1.2045621936822900E-003  -1.1139527586047981E+000  -1.6152981296713087E+000   4.1044921102966099E-002  -7.7668381840298384E-001
O      -1.6178543733230231E+000   5.6731534170427684E+000   5.3918453754865814E+000  -1.4821134138547185E+000  -4.3768469276333055E-001   5.2567815913006644E-001  -2.1551842329167266E+000  -8.7110766499863945E-001   2.3640423184821663E-001
O      -6.2393777469953693E-001   6.8868883926274194E+000   7.7335252406969133E+000  -4.1251329208991470E+000  -3.1979700027427591E+000  -2.7191656261483979E+000  -4.0148641397850531E+000  -3.0938735996561340E+000  -2.6478835828098743E+000
O      -8.4234514891375745E-001   4.2884554406511182E+000   7.7020205561829318E+000   3.7811356852686893E+000  -1.4094191025188557E-001  -3.3083081798568195E+000   3.6697245404888417E+000  -1.1333562260813827E-001  -3.1384435647547133E+000
O      -1.7595948031857749E+000   8.2653911041420223E+000   5.4931548237732448E+000   2.0399941913119783E+000  -1.9837345326538252E+000  -3.0533502021821768E+000   1.9285226473257437E+000  -1.4568916717976199E+000  -2.9183499726960225E+000
O      -3.7573689853781387E+000   6.8365913368971016E+000   5.5003341151352529E+000  -1.6871422330207189E+000   1.5772887526401289E+000  -2.4473125710179997E+000  -1.4933289256858961E+000   1.5022368796840464E+000  -2.7224544635776144E+000
O      -7.8704469424803680E-001   6.9007624526145213E+000   1.1927880078916900E+001  -1.8244738450008813E+000  -1.2590908273579873E+000   1.7344593619956798E+000  -2.0137663721344556E+000  -1.2392319043523679E+000   1.7735033101864366E+000
O      -3.9827844492691580E+000   7.0712776300132383E+000   9.7861296288207136E+000  -1.0183512217215254E+000  -1.0548001303627910E+000   3.2367825130822075E-001  -8.5648162238415060E-001  -1.2589242629291859E+000   4.6412594569715593E-001
O      -2.9865288510242296E+000   8.2046714190642245E+000   1.2109263921880716E+001  -3.4818104168896018E+000  -1.7453699228458928E+000  -3.0543020748623158E+000  -3.2730996924064679E+000  -2.5543837196743282E+000  -3.4788462043293173E+000
O      -3.1783201962216050E+000   5.7275058146096853E+000   1.2060635233098946E+001   2.6044889033932321E+000  -1.7277944100252196E+000  -1.6496395222310287E+000   2.3335294936018736E+000  -1.8929773421248757E+000  -1.7569333503708580E+000
O      -1.5989019222079663E+000   5.3356631430246964E+000   9.9239369742059029E+000   1.8290400605539484E-001   2.0351425394455682E+000  -1.3152385210981745E+000   2.6006705052464413E-001   1.7328243663160547E+000  -1.2099468062422118E+000
O       9.1184492721026811E-001   4.1771929175786084E+000   9.8046415747212077E+000  -1.6898620106791509E+000  -5.0600076736174324E-002   1.3992202259658706E-001  -1.5364462981882987E+000   5.1979721635226028E-001  -3.4607860635017296E-001
O       6.3541908450934015E+000   6.3019962406697189E-002   3.3706415707047768E+000  -1.4455360842194465E+000  -3.6526197780173115E+000   7.2251879227896998E-001  -1.4842871967832603E+000  -3.2930372580706844E+000   3.9583855148460140E-001
O       8.0293632519013673E+000   1.0424564194014448E-001   1.1167674185238299E+000  -9.6320510818836624E-001  -1.6865128328485484E+000  -3.9374830802431693E-001  -6.2492452711389967E-001  -1.6726336896811860E+000  -1.4009143381098951E-001
O       4.1277788959750081E+000   1.1852825211699105E+000   3.2349641566663960E+000   2.9053878660604188E-001   1.4506641823001549E+000   3.7196170159059960E-001   1.6192450030841618E-001   1.5416457077980876E+000   3.2320630140061474E-001
O       6.5073674450408330E+000   2.9603313502319168E+000   3.1905765772943298E+000  -2.4591298189757245E+000  -2.0990999302543942E+000   1.5278765243163899E+000  -2.5496650146990172E+000  -1.8533369309005705E+000   1.6568969836847676E+000
O      -1.5197632970395838E+000   2.6517466550553874E+000   1.1921852095616559E+000  -2.8694854181006253E+000   8.5066073446292212E-001  -1.1492734788754859E+000  -2.3624669171552295E+000   6.6857894335270163E-001  -1.4704282995283071E+000
O       5.8800729609521305E+000   1.3468994723325458E+000   1.0373490882504348E+000  -3.4580513351383875E+000   3.1047743248740789E-001   1.0730191127251689E+000  -3.6020018776706104E+000   1.3052641437108612E-002   1.5982547648202168E+000
O       8.6848553266775372E+000   1.4461729049701995E+000   7.6043759672132420E+000   4.0368503417053136E-001  -5.1724782194546803E-001   1.1732430137527987E-001   4.7316610676825510E-001  -5.3155956094977885E-001   1.6318720094351571E-001
O       5.3976438014098544E+000   1.5476625860406672E+000   5.4946513938262296E+000   2.8214239087033963E+000  -1.5703443862924154E+000  -1.1719494139552751E+000   2.8153943747351065E+000  -1.4944703120296365E+000  -8.4763681878028485E-001
O       6.5260885155933277E+000   2.6304853821477638E+000   7.7587592852880558E+000  -7.2951074533309887E-002   1.7795090491121293E+000  -1.6206154299676929E+000  -8.8305121889324115E-002   1.6454257915210182E+000  -1.4455316410304275E+000
O       6.3259479602474036E+000   1.4605486023784364E-001   7.5458085419772596E+000   3.0185608816734675E+000  -1.1977045111134978E+000   5.2754162244271041E-001   3.2133849584439167E+000  -1.5464739048200653E+000   6.1622844692920765E-002
O       5.6483687802692772E+000   4.0267104147563124E+000   5.3612904743711196E+000  -3.8669800839324280E+000   1.2642865752539010E+000   3.3201898073099896E+000  -4.0735600901030757E+000   1.2842965831082955E+000   3.1196972866073280E+000
O       3.2237009330273585E+000   2.7109662144292375E+000   5.4054091505025212E+000   1.2965550072076861E+000   3.0905189370986870E+000  -6.3139136291501419E-001   1.4370848379988694E+000   3.6453456746962907E+000  -8.9066806360607820E-001
O       6.2293316796751634E+000   2.7764162926649729E+000   1.2023649454614111E+001   1.3869177849130940E+000   1.5206383618005406E+000  -2.6010433536175126E-001   1.2997252930060117E+000   1.8321130670349361E+000  -8.9485045224848303E-001
O       3.1201788478524084E+000   2.8563917446301139E+000   9.7416674223307602E+000   2.8840605606450798E-001   1.9732454632668911E-001   1.1410994501877805E+000   3.9915905218911557E-001   1.8646976736048110E-001   8.7806170509122450E-001
O       3.9659030153527719E+000   3.9851883807421737E+000   1.2011958206424183E+001   5.0631112576174198E-001   2.4127900737200219E+000   9.0794223889159764E-001   3.9225967925830496E-001   2.4937032973967126E+000   1.1646142285695920E+000
O       3.9220559577529226E+000   1.5971410725106372E+000   1.1988154620898532E+001   2.4236429329923768E+000  -2.2616567339250491E+000   3.6271628694503405E-001   1.9432830690862526E+000  -2.3986327771503082E+000   4.4795833999997364E-001
O       5.5716371652544590E+000   1.2727391737822094E+000   9.8342337202486281E+000   1.2951853950408458E+000   4.8213996683316190E-001   1.0016846796956669E+000   1.2290483494022755E+000   7.0081529226612282E-001   1.4316621548788289E+000
O       8.2939436231478751E+000   4.9298169287884238E-003   9.7679734257158835E+000  -3.1076725527480842E+000  -1.7570108318554764E-001   1.3877194852829307E+000  -3.2623076589626709E+000  -1.6964642643754568E-001   1.5386267259392861E+000
O       3.8031030064236915E+000   4.1925904179310951E+000   3.2680785328387074E+000   2.0548453614716120E+000   1.7104410462319915E-002   8.1847518487152782E-001   2.2339043771665534E+000  -2.5613494812048592E-002   1.3155142205610790E+000
O       5.4749097310412029E+000   4.3041583725262162E+000   1.1105786053251703E+000   1.3112182632034246E+000  -1.8328836940720183E+000   1.1116771543729988E-001   1.3960200984216165E+000  -2.1306641665068717E+000   2.2927705587534256E-001
O       1.6115469706241841E+000   5.4986279339208739E+000   3.2471703623625952E+000   1.4424204025022254E+000   1.0799066927439054E+000   2.4092952774990843E+000   1.3053596473156595E+000   1.2934779068158717E+000   2.3796525832724864E+000
O       4.1411128060260323E+000   7.1337160019131112E+000   3.3504853304935773E+000   1.4948270900759542E+000  -8.9904251337414010E-001  -6.1280865711493360E-001   1.7162764814614098E+000  -1.0238752592621581E+000  -6.7745969224902547E-001
O       5.5104109061202315E+000   6.8480361313564559E+000   1.0213901863533292E+000   1.3426294893598614E+000  -7.8376164614332819E-002   1.9189238113830998E+000   1.3872375887605990E+000  -3.3771629576231166E-001   1.7233815571260285E+000
O       3.3195898877424952E+000   5.6109475724060589E+000   1.1512161705476771E+000  -1.6322032846930232E+000   1.8453991949254001E-001  -6.0864215754944240E-001  -1.6283190854757217E+000   4.2339005172756311E-001  -8.5225933454087888E-001
O       6.3481216138977210E+000   5.5837597174712261E+000   7.6998707044397694E+000   8.3369836226868022E-001  -2.7937167436236208E+000   8.3719124887459792E-002   7.1659907496565733E-001  -2.9070710998771232E+000   1.8841857650850455E-001
O       3.2248515830321565E+000   5.7201326118722164E+000   5.4135158995288943E+000  -2.1598093539543304E+000  -8.7359689234264015E-001  -9.9717866994689208E-001  -2.1401619405179031E+000  -9.6307688044804962E-001  -1.0954818364330199E+000
O       4.1940879849558934E+000   6.8457228110448058E+000   7.6552104666229415E+000  -2.2180737001778015E+000   5.9613553824913637E-002  -2.7247772274224373E+000  -2.3280624785716624E+000  -4.1198990104833889E-002  -2.3711375967315091E+000
O       3.9541448622610780E+000   4.3441665344451650E+000   7.6288359899289411E+000   2.2569822502405805E+000  -1.9313350208617222E+000  -2.2017097118957216E+000   2.0908364207211538E+000  -2.2433406293611009E+000  -2.0541866517657903E+000
O       3.1106194098392019E+000   8.2631525861310315E+000   5.4583150431869223E+000   8.0373668282973876E-001  -1.5197161292888750E+000   4.3986091075500139E-002   9.9446799857472445E-001  -2.1657459743743197E+000  -1.8430503440148199E-001
O       8.3582125740869073E-001   6.9580410519019340E+000   5.5295046347111514E+000   8.5005776993049412E-002  -7.3948837967169845E-001  -1.9040266024136752E+000   4.5918423414463200E-001  -9.8209573416598783E-001  -1.2526250730060624E+000
O       3.8974480254223818E+000   6.9121663976818200E+000   1.2010282518239748E+001  -8.2905779583283684E-002  -1.6917565362479575E-001  -1.4496596550159446E-001   7.7100179752363468E-002  -3.7979894556168187E-001  -2.2375855816100163E-002
O       8.1249467675530385E-001   7.0550473286960829E+000   9.8846998167125015E+000  -1.4602558256649532E+000  -8.0099208960864698E-001  -2.6084127096579977E+000  -1.4454691233262629E+000  -1.0337900117403733E+000  -2.6523626883752729E+000
O       1.5875031078804231E+000   8.1303865954974004E+000   1.2107698533570192E+001   3.3209097304163802E+000   2.4261199440373167E+000   3.9357476855178775E-001   2.2988300688822418E+000   2.4794507637728209E+000  -4.9314723491722284E-001
O       1.5727329108936960E+000   5.6826131415567804E+000   1.2044722808750931E+001   4.0845038186431015E+000  -1.5175018123559862E+000  -1.9727806442564655E+000   4.4822552805913434E+000  -1.5058255653068948E+000  -2.2982167123927124E+000
O       3.1234114139916356E+000   5.5220460435327539E+000   9.7452418208590252E+000   1.5379153147255328E-001   2.0487322626151808E-001   1.9255385427574172E+000  -9.8315441570087619E-002   2.9671791816818638E-001   1.8149038091128835E+000
O       5.5913251928708059E+000   4.2397523167460660E+000   9.9274203085288075E+000   2.2918956014232035E+000  -1.6483714484358969E+000  -2.9390481417816167E-001   2.4493203730429260E+000  -1.5286435268909637E+000  -9.8635344138964381E-002
Al     -4.6240908166351797E+000   8.2572470228252524E+000   1.9233565410921010E+000  -3.2860133503669018E+000   3.4910648476540294E+000  -2.5613799115482814E+000  -3.5165662052816726E+000   3.7106785051945606E+000  -2.1574780165527083E+000
Al     -7.0437825937697013E-002   2.7596342174453681E+000   2.7050658231626173E-001   2.8935321306035848E+000   4.1179156992470850E-001   9.0205440007242066E-002   2.5461251343319078E+000   3.3505621055931328E-001   1.8585010148358294E-001
Al     -1.4581962507564830E-001   2.8252869628261830E+000   4.1874012669527412E+000   3.0151601974579516E+000  -3.8428341706907559E-001  -3.5948871955404269E+000   3.0546935925202643E+000  -6.2029427272278581E-001  -3.4466251368630174E+000
Al      2.4250023869710229E+000   1.4380632267819125E+000   6.2189152910825509E+000  -9.3419142493329943E-001  -1.0468374583444109E+000   2.9723906188317337E+000  -1.0597364282891319E+000  -1.5610335066945960E+000   3.1004818916052272E+000
Al      9.4997744986048325E+000   7.8125502157397109E-002   4.6580031314074635E+000  -2.5788024318711117E-001  -2.5907515487612309E-001   5.7547562554051901E-001  -4.0065946697924998E-001  -4.2342545972347972E-001   2.1235276050900309E-001
Al      9.5000127255015059E+000   1.7708251249236980E-002   8.4051102553967016E+000   4.3151435099602464E+000  -5.1138756253759865E-001   8.0877695474682909E-001   4.4446137255270548E+000  -4.2318327990722521E-001   7.1062123285556666E-001
Al     -8.6567537567396782E-002   2.8397163158112115E+000   6.7731105662732132E+000   1.9748367986877449E+000   3.2999136125185052E-001   3.4591469349092002E-001   1.7027551193392725E+000   2.4973834751969723E-001   3.8123247015598088E-001
Al     -4.0999955466118440E-002   2.7451327235868961E+000   1.0648112079253787E+001   2.5989770084761110E+000  -2.6486364036941812E-001   1.9030425410626275E+000   2.2240796503815594E+000  -3.9915120517676295E-001   1.8602599231775758E+000
Al      2.2229799010426641E+000   1.4051215410464368E+000   8.9260781899059118E+000   3.7979464482375320E+000  -1.2934872327284834E+000   1.0196134096963987E+000   3.7738261643364712E+000  -1.3117707199019424E+000   5.7166081968327209E-001
Al      2.3016442428786221E+000   1.3565216849309429E+000   1.2803835642645712E+001   7.5836886171068441E-001   2.6546905197186050E+000   3.0132174089353150E+000   1.1330579246541894E+000   3.1676215509843049E+000   3.2780068570921461E+000
Al      4.7807299587283003E+000   8.2678316895784931E+000   1.1149702981714295E+001   1.5363180359543021E+000   3.3800887088986964E-001   1.1596391987991019E+000   1.7489000814261026E+000   3.5397076393314281E-001   1.0903030762689669E+000
Al      7.2238047786911670E+000   4.0677976940138940E+000   1.9148522120379416E+000   1.0438575523183444E+000   1.8813423696248166E+000  -8.3667821518292940E-001   9.9211327366294677E-001   2.0015839976012511E+000  -7.4188101491532765E-001
Al     -2.3359817798571618E+000   6.9554990972536466E+000   3.2129020516506107E-001   1.7174593969879351E-001  -2.7726687053769272E-001  -1.5222576601925983E+000  -2.2395230986753295E-001   1.1727083808603640E-003  -1.8449556980535500E+000
Al     -2.3302036813841496E+000   6.9567024692668182E+000   4.1484232682899815E+000   3.6655083801684252E-002  -1.8177510754091075E+000   4.4927675875668049E-001   2.4338144199849146E-001  -1.6354406527899199E+000   3.9736393546850934E-001
Al      2.8912673704821857E-002   5.6185834609741843E+000   2.5332889813347910E+000  -1.4126112714969208E+000  -2.5021047244728196E+000  -3.3763937351812534E+000  -1.4965565567656287E+000  -2.2510972136968577E+000  -3.2573956520614114E+000
Al     -1.9533318998616880E-001   5.6207351209634906E+000   6.3170860066482915E+000   4.6923542648392429E+000  -1.3528099530387148E+000   7.4122858762772048E-001   4.9914637140089217E+000  -1.3909327917205061E+000   9.1155253303853512E-001
Al      7.1649814796100388E+000   4.1848815623760194E+000   4.5973183715523627E+000   1.5822695364793269E+000   4.0765830442934370E-001  -2.6139182366239853E+000   1.6000852817578308E+000   2.0933386699931586E-001  -2.6676304084599463E+000
Al     -2.2447325639260987E+000   4.1453752330509168E+000   8.5788140017728018E+000  -5.4117037830733432E+000  -8.3203264191666015E-001   1.0938163504446721E+000  -4.9114696801448625E+000  -5.1109218195564576E-001   6.1847302368861223E-001
Al     -2.3981806352441253E+000   6.8493961394310130E+000   6.8843016922101983E+000   2.4073261097565787E-002   2.8909970458956020E+000  -3.7782694627872881E-001   2.8834094498385465E-001   3.1669463872748969E+000  -4.3220796117263960E-001
Al     -2.4701778901369793E+000   6.8703684824968461E+000   1.0647962596129567E+001   2.4746108452425406E+000   2.3096677376647690E+000   1.1358983007026098E+000   1.7543663017823810E+000   2.5490681329957012E+000   1.1964756109686765E+000
Al      2.5143548608970730E-002   5.5592808856889500E+000   8.9419343924098431E+000   1.1175738355042033E+000   7.0563878127346946E-001   1.7466376294706758E+000   1.0343253461735200E+000   5.4985476858892468E-001   1.7884580810690567E+000
Al      1.3881395985847711E-001   5.5789942947295836E+000   1.2931839109473197E+001  -4.6281696837443462E+000  -2.0844483046748659E+000   2.1017425047319438E-001  -4.9337585627963136E+000  -1.8328792913463445E+000   4.2786518711991439E-001
Al     -2.3197329195251162E+000   4.1760645947702955E+000   1.1134652788749204E+001  -8.1951325705895395E-001  -4.5126194567589362E-001   2.4077046832380598E+000  -8.2323387954241312E-001  -3.5828178830241747E-001   2.5820487378919084E+000
Al      4.7006547453004126E+000   8.4618713575341495E-002   1.8406200592884463E+000  -1.4672548665591767E+000   1.3099733150995546E-001  -6.9427731532487172E-002  -1.3143059584149934E+000   1.9993000706564409E-001  -1.4296055538381650E-001
Al      4.7278716416397168E+000   2.7722916533845861E+000   3.1606070234824873E-001   1.2208076233207521E+000  -2.5504592069162657E-001  -1.5206950042286627E+000   5.4624483343473218E-001  -1.3387292611660467E-001  -1.0850080206642083E+000
Al      4.7015886522913268E+000   2.7268099705580302E+000   4.0856251797388179E+000   4.8165201426884080E-001  -8.9324228333458677E-001  -6.5060758337513591E-001   5.3328904155482304E-001  -7.6630320373535410E-001  -7.9023145583881860E-001
Al      7.0996694618090963E+000   1.3134489192519776E+000   2.5094522159517560E+000   1.6274075509266479E+000   1.8922513348152876E+000  -3.2803720162941663E+000   2.0228477088799970E+000   1.6482713665376869E+000  -3.0221146532970393E+000
Al      7.3224720751969032E+000   1.3046664475542002E+000   6.2785130767022332E+000  -3.9426166843634038E+000   2.9650543461058394E+000   1.0739130114899582E+000  -4.1117824448382043E+000   3.5506462819792635E+000   1.4254942907866004E+000
Al     -2.2216102934774124E-002   8.2606638853639911E+000   4.5250821372634675E+000  -9.8673431834883973E-002   2.3821721348041889E+000   4.6629590713235186E-001  -2.3306814839545367E-001   2.1856330489764604E+000   3.7806183594053222E-001
Al     -4.8386362061001449E-002   8.3025363203058440E+000   8.4624934459928483E+000   2.1772243980131814E-001   4.2881165620060910E+000   3.0848048432003456E+000   4.4855037748055770E-001   4.2096220588781987E+000   3.2237932184848490E+000
Al      4.9455213002604701E+000   2.7578379270179116E+000   6.7798088308071733E+000  -1.7696132841988852E+000  -7.7263226550508005E-002   1.9348494542056225E+000  -1.6992399496815513E+000  -3.0919807825608930E-001   1.7774527805319396E+000
Al      4.7924686785529715E+000   2.7488669535303738E+000   1.0778509976948015E+001  -1.2065220836991704E+000  -2.4621258015316344E-001  -2.0457006048263904E+000  -9.1025949256262484E-001  -3.4826694485094661E-001  -2.0225340069954574E+000
Al      7.3746424014677885E+000   1.3008801548887210E+000   8.9572551636347910E+000  -4.3361093133320736E+000   1.5643095938328746E+000   8.3992203111320041E-001  -4.3048414061244422E+000   1.3895427398404854E+000   9.6203638038252282E-001
Al      7.0859258922807973E+000   1.4599867378929101E+000   1.2788564015014412E+001   4.0244041771672299E+000  -1.5883318631972065E+000   1.3812543538869890E+000   4.2164151003951043E+000  -1.8618366691438950E+000   1.3798554371287017E+000
Al      1.4704921382941791E-001   8.2352914701258548E+000   1.1272611676296442E+001  -5.6183257184945452E+000   2.7600538124606562E+000  -3.5983476209713214E+000  -4.7663698520020406E+000   2.9784665996381139E+000  -3.2079936968148681E+000
Al      2.3810744128864556E+000   4.2305484505050828E+000   1.9781793799674394E+000  -8.4596512683934266E-001  -3.4744766006053287E+000  -1.9228936164827259E+000  -7.5496705900911687E-001  -3.6361511432672913E+000  -1.7250850164588609E+000
Al      2.2637955298989967E+000   6.9601600536992576E+000   2.5143079679836566E-001   4.4897718986697477E+000   1.1395905740325882E-001   1.1867778907517137E+000   4.5268072790936555E+000   3.1055383421461957E-001   9.7052672647785698E-001
Al      2.3691374124721074E+000   6.8882853748499491E+000   4.1274769737623114E+000   1.0398374759567942E-001   1.2038775576430671E+000  -1.1937019544542529E-001   2.3368880956068691E-001   1.4152430900614619E+000  -4.0701090037444215E-001
Al      4.6735072503744082E+000   5.5900949248008232E+000   2.4349890877644773E+000   1.9312937544252713E+000  -5.7551100955774315E-001  -3.3574065315576668E-001   1.7613101440144900E+000  -2.4580154828943657E-001   2.0231886501931284E-001
Al      4.7679190918008363E+000   5.5100138751334820E+000   6.2275094910343194E+000   1.2471766472055892E+000  -5.0775808988747406E-001   1.6283012090689364E+000   1.0958028673240279E+000  -3.5474856913687225E-001   1.6142261371572915E+000
Al      2.3653077871636174E+000   4.0912523851626350E+000   4.5051058721470083E+000  -1.3792291773452365E+000  -7.6621490186032160E-001   9.9929138172661069E-001  -1.1436113070148803E+000  -1.0493233924850167E+000   8.8745020077567383E-001
Al      2.2766793790978572E+000   4.1264585590661147E+000   8.5152159754756411E+000   2.7735115356696984E+000   2.7294523726253211E-001   2.7820303349702735E-001   2.7915902861795123E+000   1.5052097894833441E-001   2.3383128597298944E-001
Al      2.3675866443313400E+000   6.8667292408133900E+000   6.7427192559524318E+000   2.7790610946813543E-001   8.2603929798343645E-001   1.6847990049028549E+000   2.4931736435628801E-001   9.6016298726281968E-001   1.9202522851742700E+000
Al      2.2858810652380837E+000   6.9166300751529013E+000   1.0785333101196485E+001   4.0696447710101626E+000  -1.5988511471450964E+000  -1.0330168366466985E+000   4.2003376679046731E+000  -1.5613801526193345E+000  -7.5798183621212356E-001
Al      4.9179908580588032E+000   5.5167509597818967E+000   8.9258238003211865E+000  -2.6448313644767092E+000   1.0992043162867620E+000   7.6079014429768987E-001  -2.6829147530591868E+000   1.3640934471068056E+000   7.0760583642687014E-001
Al      4.9833649887092095E+000   5.4701082732525927E+000   1.2936408256589965E+001  -4.6391801883022490E+000   8.3419558723859277E-001  -1.3377090031767225E+000  -4.3190836160701647E+000   1.0727303002764028E+000  -1.9035013510846825E+000
Al      2.3725272486615645E+000   4.1271922500920102E+000   1.1098855375525210E+001   3.0843683861485072E-001   8.2071116781829073E-002   5.5206540308223606E-001   4.3199320326244162E-001   5.5067592528828445E-002   6.4326161252985392E-001
         118
Lattice="   9.6100560000000002E+000   0.0000000000000000E+000   0.0000000000000000E+000  -4.8050280000000001E+000   8.3225519999999999E+000   0.0000000000000000E+000   0.0000000000000000E+000   0.0000000000000000E+000   1.3116254000000000E+001" Properties=species:S:1:pos:R:3:QM_forces:R:3:FF_forces:R:3 QM_energy=-3.5821878067270438E+004 FF_energy=-3.5822296969542069E+004 pbc="T T T" 
O       2.9717402523756826E+000   1.0408596747960364E-001   1.1353948286855449E+000   1.9185813483373613E+000  -4.9391139510894477E-001   4.1969399250966155E-002   5.7186192138218566E+000  -1.0327414022364658E+000   4.3604644665852925E+000
O       8.6772566114499838E+000   1.3118274952478208E+000   3.1923233610753305E+000   5.9133330989111883E+000   1.7433877679203569E-001   4.2066575361739398E+000   8.5017087713963591E+000  -3.9786731794738479E+000   5.7640370138704569E+000
O       1.6095728421351847E+000   2.8420293500049856E+000   3.2649940913906086E+000  -1.2852938271126710E+000   8.2828705617399823E-001   5.1608035298552180E-001  -4.0433097365878662E-001   4.5921405222163054E+000   3.0437936778078263E+000