 +-------------------------------------------------+
 |                                                 |
 |      CCC   AA    SSS  TTTTT  EEEEE  PPPP        |
 |     C     A  A  S       T    E      P   P       |
 |     C     AAAA   SS     T    EEE    PPPP        |
 |     C     A  A     S    T    E      P           |
 |      CCC  A  A  SSS     T    EEEEE  P           |
 |                                                 |
 +-------------------------------------------------+
 |                                                 |
 | Welcome to Academic Release CASTEP version 24.1 |
 | Ab Initio Total Energy Program                  |
 |                                                 |
 | Authors:                                        |
 | M. Segall, M. Probert, C. Pickard, P. Hasnip,   |
 | S. Clark, K. Refson, J. R. Yates,               |
 | A. Bartok-Partay, M. Payne                      |
 |                                                 |
 | Contributors:                                   |
 | P. Lindan, P. Haynes, J. White, V. Milman,      |
 | N. Govind, M. Gibson, P. Tulip, V. Cocula,      |
 | B. Montanari, D. Quigley, M. Glover,            |
 | L. Bernasconi, A. Perlov, M. Plummer,           |
 | E. McNellis, J. Meyer, J. Gale, D. Jochym       |
 | J. Aarons, B. Walker, R. Gillen, D. Jones       |
 | T. Green, I. J. Bush, C. J. Armstrong,          |
 | E. J. Higgins, E. L. Brown, M. S. McFly,        |
 | J. Wilkins, B-C. Shih, P. J. P. Byrne,          |
 | R. J. Maurer, J. C. Womack, J. Dziedzic,        |
 | L. LeBlanc, T. K. Stenczel, J. Kermode,         |
 | S. Sturniolo, B. Shi, B. Durham, M. Evans,      |
 | M. J. Smith, A. Tamerus, Z. Hawkhead,           |
 | V. Ravindran, T. Hollins, S. A. Joyce,          |
 | R. T. Strong, A. M. Reilly                      |
 |                                                 |
 | Copyright (c) 2000 - 2023                       |
 |                                                 |
 |     Distributed under license from Cambridge    |
 |     Enterprise for academic use only.           |
 |                                                 |
 | Please cite                                     |
 |                                                 |
 |     "First principles methods using CASTEP"     |
 |                                                 |
 |         Zeitschrift fuer Kristallographie       |
 |           220(5-6) pp. 567-570 (2005)           |
 |                                                 |
 | S. J. Clark, M. D. Segall, C. J. Pickard,       |
 | P. J. Hasnip, M. J. Probert, K. Refson,         |
 | M. C. Payne                                     |
 |                                                 |
 |       in all publications arising from          |
 |              your use of CASTEP                 |
 |                                                 |
 +-------------------------------------------------+
 |                                                 |
 |              http://www.castep.org              |
 |                                                 |
 +-------------------------------------------------+



 Compiled for linux_x86_64_gfortran10-XT on Tue, 13 Jun 2023 07:40:34 +0100
 from code version 3616dc9+  default  Sun Apr 30 15:20:24 2023 +0100
 Compiler: GNU Fortran 11.2.0; Optimisation: fast
 Comms   : CRAY MPICH version 8.1.23.14 (ANL base 3.4a2)
 MATHLIBS: Intel MKL(2023.0-Product) (LAPACK version 3.10.1)
 FFT Lib : fftw3 version commercial-fftw-3.3.10-sse2-avx-avx2-avx2_128
 Fundamental constants values: CODATA 2018

 Run started: Tue, 13 Jun 2023 07:53:19 +0100

 Atomic calculation performed for O: 1s2 2s2 2p4

 Converged in 57 iterations to an ae energy of -2034.019 eV

   ============================================================                
   | Pseudopotential Report - Date of generation 13-06-2023   |                
   ------------------------------------------------------------                
   | Element: O Ionic charge:  6.00 Level of theory: PBESOL   |                
   | Atomic Solver: Koelling-Harmon                           |                
   |                                                          |                
   |               Reference Electronic Structure             |                
   |         Orbital         Occupation         Energy        |                
   |            2s              2.000           -0.875        |                
   |            2p              4.000           -0.330        |                
   |                                                          |                
   |                 Pseudopotential Definition               |                
   |        Beta     l      e      Rc     scheme   norm       |                
   |          1      0   -0.875   1.100     qc      0         |                
   |          2      0    0.250   1.100     qc      0         |                
   |          3      1   -0.330   1.100     qc      0         |                
   |          4      1    0.250   1.100     qc      0         |                
   |         loc     2    0.000   1.100     pn      0         |                
   |                                                          |                
   | Augmentation charge Rinner = 0.769                       |                
   | Partial core correction Rc = 0.769                       |                
   ------------------------------------------------------------                
   | "2|1.1|17|20|23|20:21(qc=8)"                             |                
   ------------------------------------------------------------                
   |      Author: Chris J. Pickard, Cambridge University      |                
   ============================================================                

 Atomic calculation performed for Al: 1s2 2s2 2p6 3s2 3p1

 Converged in 55 iterations to an ae energy of -6590.489 eV

   ============================================================                
   | Pseudopotential Report - Date of generation 13-06-2023   |                
   ------------------------------------------------------------                
   | Element: Al Ionic charge:  3.00 Level of theory: PBESOL  |                
   | Atomic Solver: Koelling-Harmon                           |                
   |                                                          |                
   |               Reference Electronic Structure             |                
   |         Orbital         Occupation         Energy        |                
   |            3s              2.000           -0.284        |                
   |            3p              1.000           -0.099        |                
   |                                                          |                
   |                 Pseudopotential Definition               |                
   |        Beta     l      e      Rc     scheme   norm       |                
   |          1      0   -0.284   2.192     qc      0         |                
   |          2      0    0.250   2.192     qc      0         |                
   |          3      1   -0.099   2.192     qc      0         |                
   |          4      1    0.250   2.192     qc      0         |                
   |          5      2    0.000   2.000     qc      0         |                
   |          6      2    0.250   2.000     qc      0         |                
   |         loc     3    0.000   2.192     pn      0         |                
   |                                                          |                
   | Augmentation charge Rinner = 1.398                       |                
   | Partial core correction Rc = 1.398                       |                
   ------------------------------------------------------------                
   | "3|2.2|2.2|1.4|4|5|5|30:31:32U2U2"                       |                
   ------------------------------------------------------------                
   |      Author: Chris J. Pickard, Cambridge University      |                
   ============================================================                

 Pseudo atomic calculation performed for O 2s2 2p4

 Converged in 34 iterations to a total energy of -422.9243 eV

 Pseudo atomic calculation performed for Al 3s2 3p1

 Converged in 20 iterations to a total energy of -105.9164 eV
 Calculation parallelised over 128 processes.
 Data is distributed by G-vector(64-way) and k-point(2-way)

 ************************************ Title ************************************
 

 ***************************** General Parameters ******************************
  
 output verbosity                               : normal  (1)
 write checkpoint data to                       : al2o3-120.check
 type of calculation                            : molecular dynamics
 stress calculation                             : off
 density difference calculation                 : off
 electron localisation func (ELF) calculation   : off
 Hirshfeld analysis                             : off
 polarisation (Berry phase) analysis            : off
 molecular orbital projected DOS                : off
 deltaSCF calculation                           : off
 unlimited duration calculation
 timing information                             : on
 memory usage estimate                          : on
 write extra output files                       : on
 write final potential to formatted file        : off
 write final density to formatted file          : off
 write BibTeX reference list                    : on
 write OTFG pseudopotential files               : on
 write electrostatic potential file             : on
 write bands file                               : on
 checkpoint writing                             : both castep_bin and check files
  
 output         length unit                     : A
 output           mass unit                     : amu
 output           time unit                     : ps
 output         charge unit                     : e
 output           spin unit                     : hbar/2
 output         energy unit                     : eV
 output          force unit                     : eV/A
 output       velocity unit                     : A/ps
 output       pressure unit                     : GPa
 output     inv_length unit                     : 1/A
 output      frequency unit                     : cm-1
 output force constant unit                     : eV/A**2
 output         volume unit                     : A**3
 output   IR intensity unit                     : (D/A)**2/amu
 output         dipole unit                     : D
 output         efield unit                     : eV/A/e
 output        entropy unit                     : J/mol/K
 output    efield chi2 unit                     : pm/V
  
 wavefunctions paging                           : none
 random number generator seed                   :   75319634
 data distribution                              : optimal for this architecture
 optimization strategy                          : balance speed and memory

 *********************** Exchange-Correlation Parameters ***********************
  
 using functional                               : PBE for solids (2008)
 relativistic treatment                         : Koelling-Harmon
 DFT+D: Semi-empirical dispersion correction    : off

 ************************* Pseudopotential Parameters **************************
  
 pseudopotential representation                 : reciprocal space
 <beta|phi> representation                      : reciprocal space
 spin-orbit coupling                            : off

 **************************** Basis Set Parameters *****************************
  
 plane wave basis set cut-off                   :   400.0000   eV
 size of standard grid                          :     1.7500
 size of   fine   gmax                          :    17.9311   1/A
 finite basis set correction                    : none

 **************************** Electronic Parameters ****************************
  
 number of  electrons                           :  567.0    
 net charge of system                           :  0.000    
 treating system as non-spin-polarized
 number of bands                                :       1136
 electron temperature                           :     0.0000   K

 ********************* Electronic Minimization Parameters **********************
  
 Method: Treating system as metallic with ensemble DFT treatment of electrons,
         and number of  SD  steps               :          1
         and number of  CG  steps               :          4
  
 total energy / atom convergence tol.           : 0.1000E-07   eV
 max force / atom convergence tol.              : ignored
 convergence tolerance window                   :          3   cycles
 max. number of SCF cycles                      :         50
 number of fixed-spin iterations                :         10
 smearing scheme                                : Gaussian
 smearing width                                 : 0.2000       eV
 Fermi energy convergence tolerance             : 0.2721E-13   eV
 number of occupancy cycles                     :          6
 periodic dipole correction                     : NONE

 *********************** Population Analysis Parameters ************************
  
 Population analysis with cutoff                :  3.000       A
 Population analysis output                     : summary and pdos components

 ************************ Molecular Dynamics Parameters ************************
  
 ensemble                                       : NVT
 temperature                                    :  2500.       K
 using                                          : Langevin thermostat
 with characteristic ionic time                 : 0.1000       ps
 path integral MD                               : OFF
 time step                                      : 0.1000E-02   ps
 number of MD steps                             :        100
 ab initio properties sampled every             :         10   MD steps
 enhanced equilibration method                  : NONE
 using best-fit first order extrapolation for wavefunctions
 backup results every                           :        100   steps
  
 MD SCF energy / atom convergence tol.          : 0.1000E-07   eV
 MD SCF convergence tolerance window            :          3   cycles
 write MD trajectory file                       : on

 *******************************************************************************
  

                           -------------------------------
                                      Unit Cell
                           -------------------------------
        Real Lattice(A)                      Reciprocal Lattice(1/A)
     9.6100560     0.0000000     0.0000000        0.653813600   0.377479486   0.000000000
    -4.8050280     8.3225520     0.0000000        0.000000000   0.754958973   0.000000000
     0.0000000     0.0000000    13.1162540        0.000000000   0.000000000   0.479038093

                       Lattice parameters(A)       Cell Angles
                    a =      9.610056          alpha =   90.000000
                    b =      9.610055          beta  =   90.000000
                    c =     13.116254          gamma =  120.000002

                       Current cell volume =          1049.040497       A**3
                                   density =             2.291704   AMU/A**3
                                           =             3.805463     g/cm^3

                           -------------------------------
                                     Cell Contents
                           -------------------------------
                         Total number of ions in cell =  118
                      Total number of species in cell =    2
                        Max number of any one species =   71

            xxxxxxxxxxxxxxxxxxxxxxxxxxxxxxxxxxxxxxxxxxxxxxxxxxxxxxxxxxxx
            x  Element    Atom        Fractional coordinates of atoms  x
            x            Number           u          v          w      x
            x----------------------------------------------------------x
            x  O            1         0.325375   0.021868   0.086712   x 
            x  O            2         0.004882   0.141466   0.248583   x 
            x  O            3         0.352077   0.337550   0.254065   x 
            x  O            4         0.488640   0.316730   0.076657   x 
            x  O            5         0.193094   0.176484   0.089314   x 
            x  O            6         0.480156   0.164910   0.588787   x 
            x  O            7         0.156525   0.189547   0.413201   x 
            x  O            8         0.338628   0.323233   0.576501   x 
            x  O            9         0.176121   0.012864   0.579073   x 
            x  O           10         0.333085   0.485481   0.412626   x 
            x  O           11         0.013991   0.325711   0.420692   x 
            x  O           12         0.323734   0.335525   0.919625   x 
            x  O           13         0.995458   0.343346   0.747250   x 
            x  O           14         0.157051   0.485449   0.916373   x 
            x  O           15         0.022828   0.173101   0.920432   x 
            x  O           16         0.147282   0.156798   0.751729   x 
            x  O           17         0.345840   0.995159   0.742756   x 
            x  O           18         0.151470   0.508514   0.256990   x 
            x  O           19         0.341596   0.519303   0.077295   x 
            x  O           20         0.989037   0.655969   0.250128   x 
            x  O           21         0.350204   0.840390   0.249713   x 
            x  O           22         0.474414   0.826321   0.084329   x 
            x  O           23         0.195156   0.676970   0.089180   x 
            x  O           24         0.489154   0.677301   0.584486   x 
            x  O           25         0.179140   0.691756   0.422350   x 
            x  O           26         0.317843   0.809591   0.581497   x 
            x  O           27         0.187838   0.501615   0.583389   x 
            x  O           28         0.318114   0.989417   0.409371   x 
            x  O           29         0.023977   0.832734   0.409734   x 
            x  O           30         0.319380   0.832043   0.911693   x 
            x  O           31         0.994763   0.851612   0.744863   x 
            x  O           32         0.155991   0.984653   0.915402   x 
            x  O           33         0.025265   0.687115   0.909121   x 
            x  O           34         0.143410   0.646487   0.752547   x 
            x  O           35         0.354331   0.496550   0.745375   x 
            x  O           36         0.637764   0.007549   0.245317   x 
            x  O           37         0.830243   0.017394   0.088057   x 
            x  O           38         0.492872   0.143956   0.247283   x 
            x  O           39         0.845120   0.338482   0.248598   x 
            x  O           40         0.975888   0.312305   0.079002   x 
            x  O           41         0.664469   0.170260   0.084273   x 
            x  O           42         0.971780   0.175440   0.581913   x 
            x  O           43         0.656329   0.170736   0.411254   x 
            x  O           44         0.819869   0.320639   0.590082   x 
            x  O           45         0.667201   0.013687   0.578746   x 
            x  O           46         0.828694   0.490840   0.423855   x 
            x  O           47         0.507497   0.330126   0.414677   x 
            x  O           48         0.814449   0.327360   0.915380   x 
            x  O           49         0.514365   0.343251   0.745233   x 
            x  O           50         0.655837   0.488880   0.923519   x 
            x  O           51         0.526019   0.190052   0.914275   x 
            x  O           52         0.664537   0.163164   0.747953   x 
            x  O           53         0.833856   0.990981   0.749651   x 
            x  O           54         0.659940   0.488727   0.257396   x 
            x  O           55         0.837338   0.510839   0.085233   x 
            x  O           56         0.511227   0.650753   0.246697   x 
            x  O           57         0.843020   0.847452   0.242999   x 
            x  O           58         0.981641   0.827128   0.077984   x 
            x  O           59         0.687208   0.677645   0.090597   x 
            x  O           60         0.992809   0.678403   0.579376   x 
            x  O           61         0.656268   0.679195   0.420808   x 
            x  O           62         0.832512   0.807872   0.589477   x 
            x  O           63         0.692281   0.522398   0.589063   x 
            x  O           64         0.826353   0.997240   0.409191   x 
            x  O           65         0.527906   0.835125   0.413304   x 
            x  O           66         0.830227   0.833800   0.919834   x 
            x  O           67         0.501465   0.837016   0.749095   x 
            x  O           68         0.669074   0.987445   0.912597   x 
            x  O           69         0.499685   0.677028   0.919703   x 
            x  O           70         0.654034   0.647356   0.744214   x 
            x  O           71         0.839237   0.501496   0.751733   x 
            x  Al           1         0.991218   0.009406   0.154918   x 
            x  Al           2         0.174431   0.322389   0.023463   x 
            x  Al           3         0.179431   0.322948   0.308118   x 
            x  Al           4         0.321751   0.156477   0.475328   x 
            x  Al           5         0.993373   0.998742   0.349824   x 
            x  Al           6         0.991351   0.992431   0.641038   x 
            x  Al           7         0.151205   0.335905   0.514403   x 
            x  Al           8         0.181954   0.334485   0.817429   x 
            x  Al           9         0.326657   0.171649   0.682744   x 
            x  Al          10         0.343358   0.163790   0.980269   x 
            x  Al          11         0.996419   0.011279   0.848810   x 
            x  Al          12         0.000097   0.496138   0.151845   x 
            x  Al          13         0.160844   0.841296   0.021838   x 
            x  Al          14         0.153417   0.835488   0.317538   x 
            x  Al          15         0.337894   0.674602   0.190422   x 
            x  Al          16         0.333284   0.658842   0.486434   x 
            x  Al          17         0.992341   0.488019   0.350044   x 
            x  Al          18         0.000664   0.502618   0.641596   x 
            x  Al          19         0.165758   0.844623   0.517549   x 
            x  Al          20         0.154827   0.840178   0.816888   x 
            x  Al          21         0.345084   0.658873   0.689343   x 
            x  Al          22         0.335113   0.657625   0.978094   x 
            x  Al          23         0.007308   0.499687   0.850974   x 
            x  Al          24         0.490860   0.008525   0.148404   x 
            x  Al          25         0.671355   0.327939   0.022831   x 
            x  Al          26         0.676319   0.322161   0.307849   x 
            x  Al          27         0.848410   0.164966   0.191875   x 
            x  Al          28         0.838134   0.177556   0.473705   x 
            x  Al          29         0.513014   0.990051   0.347592   x 
            x  Al          30         0.483796   0.002359   0.651494   x 
            x  Al          31         0.667410   0.330139   0.511722   x 
            x  Al          32         0.676171   0.342175   0.807086   x 
            x  Al          33         0.821109   0.174064   0.692319   x 
            x  Al          34         0.825401   0.155919   0.980102   x 
            x  Al          35         0.495851   0.988137   0.856386   x 
            x  Al          36         0.513759   0.494549   0.153234   x 
            x  Al          37         0.659627   0.839315   0.019720   x 
            x  Al          38         0.660717   0.830742   0.316669   x 
            x  Al          39         0.840955   0.667269   0.183994   x 
            x  Al          40         0.836085   0.675728   0.485263   x 
            x  Al          41         0.484723   0.505818   0.357000   x 
            x  Al          42         0.514773   0.498861   0.640675   x 
            x  Al          43         0.675145   0.827742   0.517009   x 
            x  Al          44         0.675034   0.843751   0.812104   x 
            x  Al          45         0.843185   0.666635   0.686224   x 
            x  Al          46         0.835509   0.656999   0.978761   x 
            x  Al          47         0.511376   0.492289   0.858984   x 
            xxxxxxxxxxxxxxxxxxxxxxxxxxxxxxxxxxxxxxxxxxxxxxxxxxxxxxxxxxxx


                         No user defined ionic velocities

                           -------------------------------
                                   Details of Species
                           -------------------------------

                               Mass of species in AMU
                                    O   15.9994000
                                    Al   26.9815400

                          Electric Quadrupole Moment (Barn)
                                    O   -0.0255800 Isotope 17
                                    Al    0.1466000 Isotope 27

                          Files used for pseudopotentials:
                                    O 2|1.1|17|20|23|20:21(qc=8)
                                    Al 3|2.2|2.2|1.4|4|5|5|30:31:32U2U2

                           -------------------------------
                              k-Points For BZ Sampling
                           -------------------------------
                       MP grid size for SCF calculation is  2  2  1
                            with an offset of   0.000  0.000  0.000
                       Number of kpoints used =             2

                           -------------------------------
                               Symmetry and Constraints
                           -------------------------------

                      Maximum deviation from symmetry =  0.00000         ANG

                      Number of symmetry operations   =           1
                      Number of ionic constraints     =           3
                      Point group of crystal =     1: C1, 1, 1
                      Space group of crystal =     1: P1, P 1

             Set iprint > 1 for details on symmetry rotations/translations

                         Centre of mass is constrained
             Set iprint > 1 for details of linear ionic constraints

                         Number of cell constraints= 6
                         Cell constraints are:  0 0 0 0 0 0

                         External pressure/stress (GPa)
                          0.00000   0.00000   0.00000
                                    0.00000   0.00000
                                              0.00000
 
+---------------- MEMORY AND SCRATCH DISK ESTIMATES PER PROCESS --------------+
|                                                     Memory          Disk    |
| Baseline code, static data and system overhead      834.0 MB         0.0 MB |
| BLAS internal memory storage                          0.0 MB         0.0 MB |
| Model and support data                              197.6 MB         0.0 MB |
| Electronic energy minimisation requirements         235.5 MB         0.0 MB |
| Force calculation requirements                        0.8 MB         0.0 MB |
|                                               ----------------------------- |
| Approx. total storage required per process         1267.1 MB         0.0 MB |
|                                                                             |
| Requirements will fluctuate during execution and may exceed these estimates |
+-----------------------------------------------------------------------------+
Calculating approximate eigenstates for fixed initial Hamiltonian
Improving states further at cut-off of  400.000 eV
Calculating total energy with cut-off of  400.000 eV.
------------------------------------------------------------------------ <-- SCF
SCF loop      Energy           Fermi           Energy gain       Timer   <-- SCF
                               energy          per atom          (sec)   <-- SCF
------------------------------------------------------------------------ <-- SCF
Initial  -3.55087632E+004  8.99582481E+000                       126.18  <-- SCF
      1  -3.58212088E+004  5.93634220E+000   2.64784405E+000     381.21  <-- SCF
      2  -3.58212090E+004  5.93694977E+000   1.40875499E-006     607.71  <-- SCF
      3  -3.58212090E+004  5.93695201E+000   1.15878033E-011     776.71  <-- SCF
      4  -3.58212090E+004  5.93695201E+000   0.00000000E+000     918.82  <-- SCF
------------------------------------------------------------------------ <-- SCF
 
Final energy, E             =  -35821.01080464     eV
Final free energy (E-TS)    =  -35821.20900873     eV
(energies not corrected for finite basis set)
 
NB est. 0K energy (E-0.5TS)      =  -35821.10990669     eV
 

Writing analysis data to al2o3-120.castep_bin

Writing model to al2o3-120.check
 Starting MD

 ************************************** Forces **************************************
 *                                                                                  *
 *                           Cartesian components (eV/A)                            *
 * -------------------------------------------------------------------------------- *
 *                         x                    y                    z              *
 *                                                                                  *
 * O               1      0.45937             -2.66120             -1.35243         *
 * O               2      0.16812              2.64609              1.86886         *
 * O               3     -0.48427              0.71635             -1.29086         *
 * O               4      0.49449              2.34911              0.99920         *
 * O               5     -1.66171             -2.84115              0.84146         *
 * O               6      0.95557              0.70677             -2.75084         *
 * O               7      1.75512             -3.45301              0.91748         *
 * O               8     -1.04909              0.09829              0.93891         *
 * O               9     -1.84130              0.20344              0.35365         *
 * O              10     -8.90452              0.83320              4.86977         *
 * O              11     -1.85976              2.31700             -3.66645         *
 * O              12      1.22156             -0.45868             -1.45647         *
 * O              13      1.51175             -0.05999              1.24496         *
 * O              14      2.27324              0.13402              0.88300         *
 * O              15     -3.07256              0.90184              0.77195         *
 * O              16      1.49241              0.04257             -2.35207         *
 * O              17     -3.19368              0.30270              2.58692         *
 * O              18      1.50436             -1.45147             -0.57853         *
 * O              19      0.66151             -1.88684              2.48739         *
 * O              20      2.69847              1.02638              1.28831         *
 * O              21     -2.43021              1.28032              2.43288         *
 * O              22      2.26962              0.89811             -0.92595         *
 * O              23     -3.08104             -0.95036             -0.98622         *
 * O              24      2.19612             -1.26659             -0.70331         *
 * O              25     -1.00884             -2.29637             -1.75113         *
 * O              26      0.91036              1.95110              0.47414         *
 * O              27     -2.35556              1.65502              0.97524         *
 * O              28     -0.33761              0.21998              0.19761         *
 * O              29     -4.96064              1.60660              0.75370         *
 * O              30      0.01665             -0.46265              1.26248         *
 * O              31      1.27079             -0.42639              0.45587         *
 * O              32      1.04515              1.70901             -0.15530         *
 * O              33     -2.16104             -1.73375              2.73840         *
 * O              34      1.39935              1.66437             -2.19316         *
 * O              35     -0.41954             -1.39532              1.63710         *
 * O              36      5.29276             -0.57394             -0.27633         *
 * O              37     -0.54964             -1.14054             -0.98914         *
 * O              38      0.90076              1.71983              1.51542         *
 * O              39      1.62222              0.21945              0.55712         *
 * O              40      1.44611              1.06735              1.88687         *
 * O              41      2.94839             -2.35717              0.31049         *
 * O              42      2.60609             -1.77444              0.45320         *
 * O              43      2.26341              1.50530              1.93485         *
 * O              44      0.39645              1.14914             -2.25578         *
 * O              45      0.53876             -1.12092              0.00483         *
 * O              46      0.88190             -0.04947             -1.56229         *
 * O              47      0.44699              0.07562              1.20468         *
 * O              48      1.09990              1.07516             -0.05372         *
 * O              49     -2.81573             -0.56861              0.19262         *
 * O              50      4.19219              0.86749              1.05494         *
 * O              51     -0.70451             -2.57876             -1.00693         *
 * O              52     -4.31929             -1.84611              2.53629         *
 * O              53      1.04091              3.38259             -2.13837         *
 * O              54      0.41164              2.26837             -1.96950         *
 * O              55      0.28457             -0.14829             -0.84031         *
 * O              56     -1.86314              1.56024              0.48279         *
 * O              57      1.76747              0.41325              2.64405         *
 * O              58      0.92197              0.80762              2.42352         *
 * O              59     -0.53855             -1.07573             -1.08826         *
 * O              60      0.11501             -0.87906              1.17365         *
 * O              61      2.72515              0.10342             -0.30275         *
 * O              62     -1.16455              1.68300             -2.93784         *
 * O              63      0.38226             -1.29348             -3.26774         *
 * O              64     -0.36354             -0.72612              0.83568         *
 * O              65     -1.86163             -1.58747              0.95319         *
 * O              66     -1.64402             -0.27444             -0.96665         *
 * O              67     -0.50167              1.25655              0.44061         *
 * O              68     -0.31922              0.55534              1.35449         *
 * O              69      4.81140             -0.01327             -2.55431         *
 * O              70     -0.20807              2.03179              2.43285         *
 * O              71      1.65431              1.77771             -0.42642         *
 * Al              1      2.99320             -1.38129             -6.78803         *
 * Al              2     -1.42407              1.74375             -0.35686         *
 * Al              3     -0.30204              2.40564             -0.54244         *
 * Al              4      1.05359              3.19622              0.26249         *
 * Al              5     -0.95278              0.15632              2.60930         *
 * Al              6     -0.80662              2.18492              1.36492         *
 * Al              7      3.62138             -1.78921              1.35118         *
 * Al              8     -2.10301              1.35422              0.09214         *
 * Al              9      1.18480              0.38011              0.26879         *
 * Al             10     -0.81769              0.15365              1.65044         *
 * Al             11      0.96898             -2.48749             -0.06535         *
 * Al             12      1.18652              0.93900             -2.13884         *
 * Al             13      2.13351             -0.08924             -0.17032         *
 * Al             14      6.45062             -2.06345             -1.21361         *
 * Al             15      1.11837             -1.81976             -2.31057         *
 * Al             16     -0.41361              1.47671             -0.37538         *
 * Al             17      1.03503              2.13620              1.72525         *
 * Al             18      0.87242              0.08761              1.12813         *
 * Al             19      3.36369             -2.09682              0.15656         *
 * Al             20      2.27537             -0.20252             -1.01891         *
 * Al             21     -2.44843              0.81479             -0.20453         *
 * Al             22     -3.77624              0.58642              1.78646         *
 * Al             23     -1.50654             -0.61804             -0.73938         *
 * Al             24     -1.46702              0.09540             -0.81441         *
 * Al             25     -1.75151              1.41639             -1.71965         *
 * Al             26     -5.32599             -1.10168              0.58950         *
 * Al             27     -3.98214             -0.10333             -2.40296         *
 * Al             28     -2.30879             -2.98424              3.15963         *
 * Al             29     -4.73186              0.53099              0.42681         *
 * Al             30      3.06600             -1.52630             -1.71840         *
 * Al             31     -2.23561              0.01598              0.94733         *
 * Al             32     -0.10606             -2.71471              2.41209         *
 * Al             33      4.34373             -1.18841             -3.34656         *
 * Al             34      0.41346              2.49876              0.41989         *
 * Al             35     -0.79500              1.79741             -1.10612         *
 * Al             36     -1.05348             -2.05928             -0.52191         *
 * Al             37      0.42798             -1.89377              0.42762         *
 * Al             38      0.38776              0.04756             -1.28442         *
 * Al             39     -3.07744             -1.01213             -1.62673         *
 * Al             40      0.36029             -2.67387             -0.53895         *
 * Al             41      8.90938             -1.79241             -4.56406         *
 * Al             42     -2.23215             -0.04185              1.57499         *
 * Al             43     -2.98844              2.03560              1.71144         *
 * Al             44     -0.65031             -4.36900              1.11946         *
 * Al             45     -1.23579             -0.43897              0.85862         *
 * Al             46     -0.66861              1.39740              0.06084         *
 * Al             47     -4.38455              1.56682             -3.10783         *
 *                                                                                  *
 ************************************************************************************
  
            xxxxxxxxxxxxxxxxxxxxxxxxxxxxxxxxxxxxxxxxxxxxxxxxxxxxxxxxxxxxxx
            x                                               MD Data:     x
            x                                                            x
            x              time :      0.000000                   ps     x
            x                                                            x
            x   Potential Energy: -35821.209009                   eV     x
            x   Kinetic   Energy:     37.808550                   eV     x
            x   Total     Energy: -35783.400459                   eV     x
            x   Hamilt    Energy: -35783.400459                   eV     x
            x                                                            x
            x        Temperature:   2500.000000                    K     x
            xxxxxxxxxxxxxxxxxxxxxxxxxxxxxxxxxxxxxxxxxxxxxxxxxxxxxxxxxxxxxx


================================================================================
 Starting MD iteration          1 ...
================================================================================
 
+---------------- MEMORY AND SCRATCH DISK ESTIMATES PER PROCESS --------------+
|                                                     Memory          Disk    |
| Model and support data                              208.6 MB         0.0 MB |
| Molecular Dynamics requirements                     287.7 MB         0.0 MB |
|                                               ----------------------------- |
| Approx. total storage required per process          496.3 MB         0.0 MB |
|                                                                             |
| Requirements will fluctuate during execution and may exceed these estimates |
+-----------------------------------------------------------------------------+
 

                           -------------------------------
                                     Cell Contents
                           -------------------------------

            xxxxxxxxxxxxxxxxxxxxxxxxxxxxxxxxxxxxxxxxxxxxxxxxxxxxxxxxxxxxxx
            x  Element    Atom        Fractional coordinates of atoms    x
            x            Number           u          v          w        x
            x------------------------------------------------------------x
            x   O          1          0.324750   0.020504   0.087513     x
            x   O          2          0.002519   0.141043   0.247669     x
            x   O          3          0.351107   0.335457   0.253273     x
            x   O          4          0.488072   0.318854   0.076548     x
            x   O          5          0.192273   0.176554   0.091504     x
            x   O          6          0.481668   0.166288   0.589504     x
            x   O          7          0.157518   0.192110   0.414666     x
            x   O          8          0.336094   0.322839   0.575805     x
            x   O          9          0.173576   0.009720   0.578896     x
            x   O         10          0.332581   0.485295   0.413252     x
            x   O         11          0.016633   0.325297   0.419117     x
            x   O         12          0.325735   0.338295   0.918771     x
            x   O         13          0.995318   0.344021   0.746743     x
            x   O         14          0.158436   0.486865   0.916164     x
            x   O         15          0.024771   0.174539   0.920819     x
            x   O         16          0.147276   0.156685   0.750430     x
            x   O         17          0.346867   0.994347   0.742807     x
            x   O         18          0.151623   0.509942   0.256918     x
            x   O         19          0.343009   0.520441   0.077528     x
            x   O         20          0.989144   0.657323   0.251440     x
            x   O         21          0.348653   0.838746   0.249208     x
            x   O         22          0.473209   0.826426   0.083608     x
            x   O         23          0.195798   0.678081   0.089837     x
            x   O         24          0.488294   0.676803   0.584939     x
            x   O         25          0.177795   0.690776   0.421736     x
            x   O         26          0.316827   0.809175   0.581454     x
            x   O         27          0.185317   0.499547   0.583737     x
            x   O         28          0.320046   0.989956   0.409503     x
            x   O         29          0.025578   0.832995   0.409031     x
            x   O         30          0.319454   0.831065   0.910603     x
            x   O         31          0.992918   0.849238   0.744763     x
            x   O         32          0.155338   0.984398   0.916389     x
            x   O         33          0.025587   0.686515   0.909057     x
            x   O         34          0.145519   0.647025   0.752515     x
            x   O         35          0.355876   0.496291   0.744633     x
            x   O         36          0.637083   0.005786   0.245973     x
            x   O         37          0.832196   0.018020   0.088592     x
            x   O         38          0.491630   0.143173   0.248942     x
            x   O         39          0.846802   0.340808   0.249044     x
            x   O         40          0.976764   0.313391   0.080879     x
            x   O         41          0.662375   0.170480   0.083982     x
            x   O         42          0.973894   0.175946   0.582642     x
            x   O         43          0.657617   0.172321   0.410866     x
            x   O         44          0.819586   0.324111   0.591212     x
            x   O         45          0.670999   0.015968   0.578426     x
            x   O         46          0.828623   0.490369   0.424916     x
            x   O         47          0.507852   0.329001   0.414392     x
            x   O         48          0.817929   0.328110   0.917178     x
            x   O         49          0.516590   0.344303   0.744867     x
            x   O         50          0.655292   0.488562   0.923158     x
            x   O         51          0.525730   0.188517   0.914280     x
            x   O         52          0.664880   0.163579   0.747588     x
            x   O         53          0.833202   0.990743   0.749048     x
            x   O         54          0.657057   0.487800   0.256915     x
            x   O         55          0.836110   0.510220   0.083989     x
            x   O         56          0.511877   0.652692   0.246745     x
            x   O         57          0.843658   0.847737   0.243024     x
            x   O         58          0.983911   0.829590   0.078254     x
            x   O         59          0.687681   0.676955   0.091514     x
            x   O         60          0.990800   0.677329   0.580215     x
            x   O         61          0.653596   0.677964   0.422557     x
            x   O         62          0.833453   0.808534   0.589365     x
            x   O         63          0.692536   0.521622   0.588332     x
            x   O         64          0.826508   0.997194   0.408570     x
            x   O         65          0.529684   0.835148   0.412309     x
            x   O         66          0.829609   0.834778   0.920496     x
            x   O         67          0.501988   0.838101   0.750073     x
            x   O         68          0.668506   0.986608   0.913323     x
            x   O         69          0.498333   0.673715   0.919928     x
            x   O         70          0.654997   0.648135   0.745807     x
            x   O         71          0.837777   0.500777   0.752495     x
            x   Al         1          0.991438   0.010249   0.153854     x
            x   Al         2          0.173737   0.321870   0.024373     x
            x   Al         3          0.180983   0.322864   0.307489     x
            x   Al         4          0.320652   0.155279   0.474864     x
            x   Al         5          0.996258   0.999687   0.349158     x
            x   Al         6          0.990765   0.991181   0.641051     x
            x   Al         7          0.149416   0.334957   0.514682     x
            x   Al         8          0.181582   0.334841   0.816758     x
            x   Al         9          0.326707   0.171719   0.682346     x
            x   Al        10          0.341514   0.161676   0.980329     x
            x   Al        11          0.997694   0.011925   0.849894     x
            x   Al        12          0.000239   0.497111   0.152400     x
            x   Al        13          0.160729   0.841803   0.022133     x
            x   Al        14          0.153865   0.835311   0.318284     x
            x   Al        15          0.337019   0.673746   0.190549     x
            x   Al        16          0.333674   0.658591   0.486739     x
            x   Al        17          0.991033   0.487697   0.349049     x
            x   Al        18          0.000234   0.501764   0.641464     x
            x   Al        19          0.165174   0.842908   0.517475     x
            x   Al        20          0.155976   0.840131   0.817092     x
            x   Al        21          0.345474   0.658558   0.688372     x
            x   Al        22          0.334926   0.659111   0.977502     x
            x   Al        23          0.006889   0.501320   0.850309     x
            x   Al        24          0.490864   0.008598   0.147733     x
            x   Al        25          0.671072   0.328397   0.023173     x
            x   Al        26          0.675159   0.322152   0.308223     x
            x   Al        27          0.848410   0.163132   0.192732     x
            x   Al        28          0.835662   0.176236   0.473302     x
            x   Al        29          0.512800   0.990850   0.346931     x
            x   Al        30          0.482116   0.000960   0.651915     x
            x   Al        31          0.667271   0.330159   0.510944     x
            x   Al        32          0.675616   0.343120   0.807879     x
            x   Al        33          0.820975   0.175189   0.692351     x
            x   Al        34          0.826142   0.157036   0.979950     x
            x   Al        35          0.497637   0.988714   0.856477     x
            x   Al        36          0.513360   0.492995   0.152713     x
            x   Al        37          0.658789   0.839625   0.019188     x
            x   Al        38          0.662817   0.832073   0.316897     x
            x   Al        39          0.842364   0.667515   0.183956     x
            x   Al        40          0.835014   0.673610   0.485692     x
            x   Al        41          0.485440   0.505835   0.356031     x
            x   Al        42          0.515274   0.498005   0.640213     x
            x   Al        43          0.674707   0.828433   0.515555     x
            x   Al        44          0.674882   0.842990   0.811742     x
            x   Al        45          0.843336   0.666842   0.684831     x
            x   Al        46          0.834302   0.657228   0.978806     x
            x   Al        47          0.512099   0.493644   0.860534     x
            xxxxxxxxxxxxxxxxxxxxxxxxxxxxxxxxxxxxxxxxxxxxxxxxxxxxxxxxxxxxxx

------------------------------------------------------------------------ <-- SCF
SCF loop      Energy           Fermi           Energy gain       Timer   <-- SCF
                               energy          per atom          (sec)   <-- SCF
------------------------------------------------------------------------ <-- SCF
Initial  -3.57710091E+004  5.90615771E+000                       937.74  <-- SCF
      1  -3.58210004E+004  5.87674757E+000   4.23655265E-001    1177.51  <-- SCF
      2  -3.58210005E+004  5.87659043E+000   3.77538707E-007    1380.01  <-- SCF
      3  -3.58210005E+004  5.87658986E+000   2.98870945E-012    1547.47  <-- SCF
      4  -3.58210005E+004  5.87658986E+000   5.24334991E-014    1684.66  <-- SCF
------------------------------------------------------------------------ <-- SCF
 
Final energy, E             =  -35820.79869855     eV
Final free energy (E-TS)    =  -35821.00046255     eV
(energies not corrected for finite basis set)
 
NB est. 0K energy (E-0.5TS)      =  -35820.89958055     eV
 

 ************************************** Forces **************************************
 *                                                                                  *
 *                           Cartesian components (eV/A)                            *
 * -------------------------------------------------------------------------------- *
 *                         x                    y                    z              *
 *                                                                                  *
 * O               1      0.32448             -2.41983             -1.53426         *
 * O               2      0.90233              2.59945              2.44398         *
 * O               3     -0.27230              0.86909             -1.16119         *
 * O               4      0.71820              1.96071              0.67755         *
 * O               5     -1.58661             -2.71226              0.31563         *
 * O               6      0.89260              0.48508             -2.83842         *
 * O               7      1.89305             -3.82723              0.35375         *
 * O               8     -0.61548             -0.01261              1.18972         *
 * O               9     -1.51925              0.62847              0.32606         *
 * O              10     -7.79043              0.93100              4.13468         *
 * O              11     -2.83971              1.84235             -3.45199         *
 * O              12      0.94673             -1.30073             -0.95781         *
 * O              13      1.55278             -0.05348              1.49718         *
 * O              14      1.84651             -0.06593              0.75014         *
 * O              15     -3.16339              0.84325              0.78732         *
 * O              16      1.37192              0.00172             -1.83243         *
 * O              17     -3.67584              0.42251              2.75757         *
 * O              18      1.53716             -1.58547             -0.60876         *
 * O              19      0.51149             -2.00636              2.43287         *
 * O              20      2.60334              0.70854              0.93494         *
 * O              21     -2.45940              1.69823              2.68861         *
 * O              22      2.36294              0.93959             -0.91760         *
 * O              23     -3.23213             -1.00918             -1.23443         *
 * O              24      2.33176             -0.90960             -0.83285         *
 * O              25     -0.91449             -2.23955             -1.40963         *
 * O              26      1.09377              1.86955              0.51872         *
 * O              27     -2.28877              2.13876              0.89010         *
 * O              28     -0.38015              0.01979              0.30164         *
 * O              29     -5.28387              1.48756              1.16777         *
 * O              30     -0.06057             -0.20233              1.41864         *
 * O              31      1.53121             -0.01561              0.86532         *
 * O              32      1.15286              1.68556             -0.43977         *
 * O              33     -2.38340             -1.44412              2.91817         *
 * O              34      1.19518              1.61603             -2.27452         *
 * O              35     -0.60871             -1.27634              1.57666         *
 * O              36      5.41915             -0.28195             -0.76619         *
 * O              37     -1.14722             -1.13450             -1.41414         *
 * O              38      1.04256              1.59320              1.04860         *
 * O              39      1.14628             -0.27846              0.45783         *
 * O              40      1.42429              0.87345              1.58525         *
 * O              41      3.32996             -2.53146              0.62275         *
 * O              42      2.24852             -2.00307              0.28956         *
 * O              43      2.20857              1.17378              1.94196         *
 * O              44      0.53049              0.65658             -2.43878         *
 * O              45      0.14456             -1.32244             -0.02189         *
 * O              46      0.88718              0.11466             -1.99133         *
 * O              47      0.22379              0.21395              1.22779         *
 * O              48      0.70665              1.11491             -0.49569         *
 * O              49     -3.28151             -0.74679             -0.03997         *
 * O              50      4.91972              0.80958              1.47434         *
 * O              51     -0.93417             -2.46742             -0.92876         *
 * O              52     -4.56969             -1.80569              3.00524         *
 * O              53      1.15444              3.44598             -1.80455         *
 * O              54      0.88843              2.24209             -1.69031         *
 * O              55      0.55777              0.24723             -0.25120         *
 * O              56     -1.73995              1.23711              0.44597         *
 * O              57      1.86165              0.43935              2.58826         *
 * O              58      0.74042              0.41644              2.45055         *
 * O              59     -0.62225             -0.92562             -1.37561         *
 * O              60      0.42938             -0.81905              0.87404         *
 * O              61      2.95999              0.07019             -0.66648         *
 * O              62     -1.44916              1.38423             -3.16807         *
 * O              63      0.21040             -1.22485             -3.10665         *
 * O              64     -0.06236             -0.70586              0.82204         *
 * O              65     -2.23253             -1.37072              1.31231         *
 * O              66     -1.47444             -0.34055             -0.95087         *
 * O              67     -0.56579              0.89640             -0.00483         *
 * O              68     -0.17007              0.71182              1.36372         *
 * O              69      4.74492              0.53525             -2.41465         *
 * O              70     -0.27978              1.94173              2.00447         *
 * O              71      1.89134              2.22749             -0.52341         *
 * Al              1      3.25669             -1.51063             -6.40564         *
 * Al              2     -1.24805              2.03281             -0.47544         *
 * Al              3     -0.86801              2.37138             -0.26687         *
 * Al              4      0.99757              3.32196              0.48120         *
 * Al              5     -1.38021              0.24524              2.76784         *
 * Al              6     -0.85724              2.42965              1.51392         *
 * Al              7      3.78474             -1.71236              1.34847         *
 * Al              8     -1.90845              1.49011              0.08324         *
 * Al              9      1.22447              0.46740              0.23727         *
 * Al             10     -0.63391              0.61622              1.68918         *
 * Al             11      0.72312             -2.57414             -0.46032         *
 * Al             12      1.22935              0.88211             -2.29515         *
 * Al             13      2.31910             -0.33078             -0.14747         *
 * Al             14      6.86773             -2.05036             -1.56058         *
 * Al             15      1.32505             -1.85594             -2.35381         *
 * Al             16     -0.57340              1.28396             -0.57503         *
 * Al             17      1.32629              2.08029              2.02469         *
 * Al             18      0.94728              0.27036              1.23456         *
 * Al             19      3.19749             -2.13909              0.15215         *
 * Al             20      2.09501             -0.29507             -1.16641         *
 * Al             21     -2.38828              0.75734              0.21288         *
 * Al             22     -3.64101              0.39083              1.86221         *
 * Al             23     -1.01973             -0.83932             -0.56808         *
 * Al             24     -1.48754              0.04375             -0.41553         *
 * Al             25     -1.88618              1.43879             -1.91668         *
 * Al             26     -5.07438             -1.02763              0.35054         *
 * Al             27     -4.59629              0.34000             -2.46674         *
 * Al             28     -1.40227             -2.35078              3.07861         *
 * Al             29     -4.68076              0.32642              0.63817         *
 * Al             30      3.40347             -1.23310             -2.00255         *
 * Al             31     -2.24192             -0.05241              1.19438         *
 * Al             32      0.12611             -3.02349              2.47017         *
 * Al             33      4.70030             -1.23988             -3.56089         *
 * Al             34      0.48602              2.36792              0.57188         *
 * Al             35     -0.99720              1.69818             -1.17485         *
 * Al             36     -1.26416             -1.59843             -0.39151         *
 * Al             37      0.56941             -1.96178              0.62395         *
 * Al             38      0.35707             -0.12624             -1.47581         *
 * Al             39     -3.40944             -0.91903             -1.72161         *
 * Al             40      0.22045             -2.33527             -0.61635         *
 * Al             41      7.88386             -1.77497             -4.05621         *
 * Al             42     -2.36895             -0.06170              1.78196         *
 * Al             43     -2.77274              2.05849              2.11393         *
 * Al             44     -0.48074             -4.25375              1.05450         *
 * Al             45     -1.29376             -0.75185              1.29114         *
 * Al             46     -0.54961              1.43026              0.05635         *
 * Al             47     -4.85166              1.62092             -3.67430         *
 *                                                                                  *
 ************************************************************************************
  
            xxxxxxxxxxxxxxxxxxxxxxxxxxxxxxxxxxxxxxxxxxxxxxxxxxxxxxxxxxxxxx
            x                                               MD Data:     x
            x                                                            x
            x              time :      0.001000                   ps     x
            x                                                            x
            x   Potential Energy: -35821.000463                   eV     x
            x   Kinetic   Energy:     37.251451                   eV     x
            x   Total     Energy: -35783.749012                   eV     x
            x   Hamilt    Energy: -35783.749012                   eV     x
            x                                                            x
            x        Temperature:   2463.163160                    K     x
            xxxxxxxxxxxxxxxxxxxxxxxxxxxxxxxxxxxxxxxxxxxxxxxxxxxxxxxxxxxxxx


--------------------------------------------------------------------------------
 ... finished MD iteration          1

================================================================================
 Starting MD iteration          2 ...
================================================================================

                           -------------------------------
                                     Cell Contents
                           -------------------------------

            xxxxxxxxxxxxxxxxxxxxxxxxxxxxxxxxxxxxxxxxxxxxxxxxxxxxxxxxxxxxxx
            x  Element    Atom        Fractional coordinates of atoms    x
            x            Number           u          v          w        x
            x------------------------------------------------------------x
            x   O          1          0.323801   0.019138   0.087960     x
            x   O          2          0.000384   0.140614   0.246789     x
            x   O          3          0.350029   0.333492   0.252413     x
            x   O          4          0.487337   0.320948   0.076698     x
            x   O          5          0.191220   0.176546   0.093796     x
            x   O          6          0.483271   0.167632   0.590211     x
            x   O          7          0.158732   0.194741   0.415981     x
            x   O          8          0.333685   0.322511   0.575130     x
            x   O          9          0.170963   0.006623   0.578846     x
            x   O         10          0.331780   0.485213   0.414182     x
            x   O         11          0.019106   0.325074   0.417283     x
            x   O         12          0.327762   0.340970   0.918167     x
            x   O         13          0.995393   0.345025   0.746343     x
            x   O         14          0.160026   0.488315   0.916009     x
            x   O         15          0.026569   0.176019   0.921515     x
            x   O         16          0.147283   0.156634   0.749142     x
            x   O         17          0.347943   0.994082   0.742805     x
            x   O         18          0.151906   0.511484   0.256884     x
            x   O         19          0.344295   0.521435   0.077790     x
            x   O         20          0.989622   0.658940   0.252700     x
            x   O         21          0.346916   0.836952   0.248886     x
            x   O         22          0.471924   0.826548   0.082758     x
            x   O         23          0.195892   0.678993   0.090338     x
            x   O         24          0.487696   0.676585   0.585365     x
            x   O         25          0.176654   0.689707   0.420775     x
            x   O         26          0.315822   0.808760   0.581452     x
            x   O         27          0.182891   0.497744   0.584247     x
            x   O         28          0.321881   0.990300   0.409537     x
            x   O         29          0.026510   0.833250   0.408385     x
            x   O         30          0.319257   0.830097   0.909541     x
            x   O         31          0.991251   0.846923   0.744848     x
            x   O         32          0.155094   0.984377   0.917387     x
            x   O         33          0.025402   0.685276   0.909258     x
            x   O         34          0.147876   0.647678   0.752294     x
            x   O         35          0.356954   0.495900   0.743947     x
            x   O         36          0.636728   0.004098   0.246551     x
            x   O         37          0.834008   0.018693   0.088902     x
            x   O         38          0.490423   0.142657   0.250642     x
            x   O         39          0.848642   0.343000   0.249591     x
            x   O         40          0.977655   0.314525   0.082799     x
            x   O         41          0.660164   0.170387   0.083564     x
            x   O         42          0.975365   0.175845   0.583514     x
            x   O         43          0.659076   0.174178   0.410366     x
            x   O         44          0.819512   0.327494   0.592290     x
            x   O         45          0.674727   0.018103   0.578195     x
            x   O         46          0.828701   0.490103   0.425925     x
            x   O         47          0.508048   0.327828   0.413994     x
            x   O         48          0.821540   0.328955   0.918929     x
            x   O         49          0.518648   0.345483   0.744602     x
            x   O         50          0.654949   0.488219   0.922818     x
            x   O         51          0.525415   0.186626   0.914340     x
            x   O         52          0.664387   0.163327   0.747223     x
            x   O         53          0.832866   0.991067   0.748102     x
            x   O         54          0.654463   0.487310   0.256273     x
            x   O         55          0.834938   0.509782   0.082722     x
            x   O         56          0.512650   0.655298   0.246726     x
            x   O         57          0.844446   0.848062   0.243237     x
            x   O         58          0.986248   0.832040   0.078673     x
            x   O         59          0.688309   0.676278   0.092385     x
            x   O         60          0.988982   0.676144   0.581140     x
            x   O         61          0.651431   0.676949   0.424422     x
            x   O         62          0.834295   0.809141   0.589072     x
            x   O         63          0.692767   0.521121   0.587476     x
            x   O         64          0.826891   0.997444   0.408029     x
            x   O         65          0.531323   0.834988   0.411321     x
            x   O         66          0.828812   0.835518   0.920981     x
            x   O         67          0.502482   0.839094   0.751036     x
            x   O         68          0.667958   0.986024   0.914156     x
            x   O         69          0.497256   0.670167   0.919911     x
            x   O         70          0.656233   0.649045   0.747716     x
            x   O         71          0.836553   0.499903   0.753346     x
            x   Al         1          0.992012   0.011134   0.152621     x
            x   Al         2          0.172956   0.321413   0.025314     x
            x   Al         3          0.182889   0.322966   0.306818     x
            x   Al         4          0.319529   0.154075   0.474297     x
            x   Al         5          0.998970   1.000571   0.348610     x
            x   Al         6          0.989888   0.989702   0.641136     x
            x   Al         7          0.147844   0.333993   0.514952     x
            x   Al         8          0.181281   0.335215   0.815997     x
            x   Al         9          0.326830   0.171956   0.681976     x
            x   Al        10          0.339738   0.159353   0.980558     x
            x   Al        11          0.999277   0.012529   0.850966     x
            x   Al        12          0.000185   0.497823   0.152815     x
            x   Al        13          0.160846   0.842443   0.022327     x
            x   Al        14          0.154582   0.835057   0.319037     x
            x   Al        15          0.336265   0.673045   0.190670     x
            x   Al        16          0.334135   0.658548   0.487130     x
            x   Al        17          0.989712   0.487396   0.348105     x
            x   Al        18         -0.000084   0.501043   0.641344     x
            x   Al        19          0.164734   0.841434   0.517431     x
            x   Al        20          0.157083   0.839870   0.817252     x
            x   Al        21          0.345753   0.658126   0.687547     x
            x   Al        22          0.334672   0.660715   0.977111     x
            x   Al        23          0.006399   0.502945   0.849751     x
            x   Al        24          0.490887   0.008769   0.147028     x
            x   Al        25          0.670735   0.328764   0.023405     x
            x   Al        26          0.673776   0.321993   0.308418     x
            x   Al        27          0.848125   0.161233   0.193477     x
            x   Al        28          0.832837   0.174681   0.473129     x
            x   Al        29          0.512310   0.991645   0.346400     x
            x   Al        30          0.480808  -0.000305   0.652279     x
            x   Al        31          0.667073   0.330192   0.510120     x
            x   Al        32          0.674954   0.343920   0.808778     x
            x   Al        33          0.820841   0.176106   0.692258     x
            x   Al        34          0.827172   0.158352   0.979760     x
            x   Al        35          0.499476   0.989315   0.856564     x
            x   Al        36          0.512814   0.491357   0.152148     x
            x   Al        37          0.657507   0.839721   0.018608     x
            x   Al        38          0.664786   0.833204   0.317185     x
            x   Al        39          0.843501   0.667494   0.183842     x
            x   Al        40          0.834123   0.671619   0.486104     x
            x   Al        41          0.486283   0.505717   0.355033     x
            x   Al        42          0.515557   0.496975   0.639601     x
            x   Al        43          0.674143   0.829133   0.514186     x
            x   Al        44          0.674920   0.842093   0.811356     x
            x   Al        45          0.843194   0.666860   0.683541     x
            x   Al        46          0.833442   0.657658   0.978783     x
            x   Al        47          0.512749   0.495125   0.862027     x
            xxxxxxxxxxxxxxxxxxxxxxxxxxxxxxxxxxxxxxxxxxxxxxxxxxxxxxxxxxxxxx

------------------------------------------------------------------------ <-- SCF
SCF loop      Energy           Fermi           Energy gain       Timer   <-- SCF
                               energy          per atom          (sec)   <-- SCF
------------------------------------------------------------------------ <-- SCF
Initial  -3.57582726E+004  5.88603288E+000                      1703.17  <-- SCF
      1  -3.58206749E+004  5.81327629E+000   5.28833342E-001    1948.82  <-- SCF
      2  -3.58206749E+004  5.81305013E+000   2.29107755E-007    2149.26  <-- SCF
      3  -3.58206749E+004  5.81305013E+000   1.04866998E-012    2290.75  <-- SCF
      4  -3.58206749E+004  5.81305013E+000   5.24334991E-014    2429.48  <-- SCF
------------------------------------------------------------------------ <-- SCF
 
Final energy, E             =  -35820.46891668     eV
Final free energy (E-TS)    =  -35820.67491153     eV
(energies not corrected for finite basis set)
 
NB est. 0K energy (E-0.5TS)      =  -35820.57191410     eV
 

 ************************************** Forces **************************************
 *                                                                                  *
 *                           Cartesian components (eV/A)                            *
 * -------------------------------------------------------------------------------- *
 *                         x                    y                    z              *
 *                                                                                  *
 * O               1      0.32762             -2.14970             -1.58048         *
 * O               2      1.70366              2.47943              3.00943         *
 * O               3      0.04462              1.09211             -1.04821         *
 * O               4      1.04650              1.45238              0.24981         *
 * O               5     -1.47546             -2.51589             -0.20900         *
 * O               6      0.74643              0.27689             -2.95804         *
 * O               7      2.10149             -4.22107             -0.20227         *
 * O               8     -0.18793             -0.16758              1.39762         *
 * O               9     -1.13805              1.10162              0.24767         *
 * O              10     -6.44779              1.03059              3.21467         *
 * O              11     -3.65639              1.45300             -3.15309         *
 * O              12      0.64239             -2.13960             -0.53464         *
 * O              13      1.55914             -0.14811              1.70525         *
 * O              14      1.41308             -0.27122              0.60643         *
 * O              15     -3.17199              0.69969              0.68275         *
 * O              16      1.27211             -0.05025             -1.29093         *
 * O              17     -4.10629              0.46281              2.92667         *
 * O              18      1.57222             -1.73744             -0.67235         *
 * O              19      0.36434             -2.06920              2.39273         *
 * O              20      2.40387              0.35933              0.53578         *
 * O              21     -2.50034              2.16673              2.85527         *
 * O              22      2.42462              0.95211             -0.90395         *
 * O              23     -3.31017             -1.04901             -1.42793         *
 * O              24      2.44024             -0.63569             -0.90521         *
 * O              25     -0.85712             -2.16705             -0.97162         *
 * O              26      1.23971              1.79167              0.57150         *
 * O              27     -2.18566              2.49517              0.71971         *
 * O              28     -0.43091             -0.11934              0.45141         *
 * O              29     -5.44726              1.38005              1.49856         *
 * O              30     -0.07970              0.08169              1.53947         *
 * O              31      1.74868              0.37247              1.22682         *
 * O              32      1.17548              1.60486             -0.75186         *
 * O              33     -2.56810             -1.04194              3.03063         *
 * O              34      0.93638              1.52503             -2.25902         *
 * O              35     -0.74189             -1.16473              1.49146         *
 * O              36      5.42648             -0.02460             -1.15365         *
 * O              37     -1.67668             -1.12649             -1.73452         *
 * O              38      1.13479              1.44002              0.54621         *
 * O              39      0.59038             -0.71300              0.29357         *
 * O              40      1.37123              0.68504              1.26252         *
 * O              41      3.67955             -2.59945              0.93834         *
 * O              42      1.91265             -2.07616              0.07892         *
 * O              43      2.09965              0.78966              1.96275         *
 * O              44      0.58717              0.08999             -2.56227         *
 * O              45     -0.19790             -1.47227             -0.11205         *
 * O              46      0.84675              0.25107             -2.38228         *
 * O              47      0.00866              0.36207              1.26891         *
 * O              48      0.31457              1.16752             -0.91293         *
 * O              49     -3.69808             -0.90786             -0.28771         *
 * O              50      5.56844              0.71575              1.84505         *
 * O              51     -1.19881             -2.29452             -0.83214         *
[...]
              O 26 -- O 67                  -0.08        2.67821
             Al 30 -- Al 33                 -0.24        2.67887
              O 38 -- O 39                  -0.06        2.67960
              O 37 -- O 41                  -0.07        2.68066
              O 11 -- O 43                  -0.07        2.68148
              O 10 -- O 27                  -0.08        2.68328
              O 13 -- O 15                  -0.06        2.68516
              O 29 -- O 64                  -0.07        2.68578
              O 13 -- O 48                  -0.06        2.68596
              O 9  -- O 29                  -0.07        2.68626
              O 55 -- O 59                  -0.08        2.68797
              O 50 -- O 59                  -0.07        2.68828
              O 30 -- O 67                  -0.07        2.68860
              O 27 -- O 35                  -0.06        2.68905
              O 19 -- O 56                  -0.08        2.68983
              O 60 -- O 63                  -0.07        2.69009
              O 6  -- O 9                   -0.07        2.69075
              O 4  -- O 55                  -0.07        2.69105
              O 45 -- O 52                  -0.08        2.69159
              O 54 -- O 59                  -0.08        2.69175
              O 19 -- O 22                  -0.08        2.69200
              O 66 -- O 70                  -0.07        2.69225
              O 64 -- O 65                  -0.07        2.69256
              O 42 -- O 64                  -0.06        2.69571
              O 58 -- O 59                  -0.07        2.69860
              O 59 -- O 69                  -0.07        2.70043
              O 3  -- O 5                   -0.04        2.70122
              O 6  -- O 17                  -0.08        2.70277
             Al 6  -- Al 11                 -0.25        2.70299
              O 46 -- O 60                  -0.07        2.70372
             Al 37 -- Al 46                 -0.16        2.70628
              O 13 -- O 44                  -0.08        2.70761
             Al 10 -- Al 25                 -0.22        2.70835
              O 41 -- O 55                  -0.06        2.70848
              O 10 -- Al 17                 -0.03        2.70910
              O 53 -- O 62                  -0.06        2.71069
              O 14 -- O 40                  -0.06        2.71222
              O 38 -- O 41                  -0.06        2.71326
              O 16 -- O 42                  -0.06        2.71341
              O 33 -- O 50                  -0.06        2.71449
              O 17 -- O 67                  -0.07        2.71585
              O 12 -- O 32                  -0.06        2.71893
              O 31 -- O 66                  -0.06        2.71985
              O 1  -- O 22                  -0.06        2.72000
              O 37 -- O 59                  -0.06        2.72014
             Al 18 -- Al 33                 -0.20        2.72114
              O 47 -- O 63                  -0.06        2.72186
              O 22 -- O 30                  -0.06        2.72390
              O 1  -- O 58                  -0.06        2.72427
              O 36 -- O 39                  -0.06        2.72618
             Al 12 -- Al 17                 -0.21        2.72719
              O 61 -- O 65                  -0.07        2.72758
              O 63 -- O 71                  -0.06        2.72783
              O 15 -- O 37                  -0.06        2.72791
              O 18 -- O 40                  -0.06        2.73168
              O 7  -- O 11                  -0.06        2.73171
              O 39 -- O 40                  -0.07        2.73191
              O 50 -- O 69                  -0.06        2.73749
              O 13 -- O 42                  -0.06        2.73754
              O 16 -- O 17                  -0.06        2.73871
              O 3  -- O 47                  -0.06        2.73997
              O 17 -- O 52                  -0.07        2.74013
              O 19 -- O 23                  -0.07        2.74017
              O 26 -- O 45                  -0.05        2.74075
              O 33 -- O 55                  -0.06        2.74104
              O 25 -- O 28                  -0.06        2.74190
              O 4  -- O 50                  -0.07        2.74236
              O 12 -- O 16                  -0.06        2.74251
              O 21 -- O 38                  -0.06        2.74265
              O 4  -- Al 24                 -0.02        2.74322
              O 3  -- O 4                   -0.06        2.74434
              O 3  -- O 54                  -0.07        2.74470
              O 29 -- O 60                  -0.07        2.74473
              O 42 -- O 45                  -0.06        2.74494
             Al 19 -- Al 40                 -0.24        2.74657
              O 8  -- O 10                  -0.07        2.74819
              O 49 -- O 50                  -0.07        2.74864
              O 20 -- O 55                  -0.07        2.74975
             Al 22 -- Al 37                 -0.23        2.75017
             Al 9  -- Al 30                 -0.22        2.75062
              O 31 -- O 34                  -0.06        2.75101
             Al 24 -- Al 29                 -0.19        2.75135
              O 44 -- O 46                  -0.06        2.75259
             Al 10 -- Al 13                 -0.20        2.75280
              O 20 -- O 58                  -0.06        2.75493
              O 21 -- O 22                  -0.07        2.75516
              O 35 -- O 69                  -0.06        2.75771
              O 15 -- O 48                  -0.06        2.75911
             Al 18 -- Al 23                 -0.15        2.75970
              O 24 -- O 61                  -0.06        2.76055
             Al 40 -- Al 43                 -0.32        2.76114
              O 18 -- O 23                  -0.07        2.76234
              O 32 -- O 33                  -0.07        2.76314
             Al 26 -- Al 31                 -0.19        2.76445
              O 61 -- Al 38                  0.04        2.76655
             Al 9  -- Al 42                 -0.18        2.76657
              O 54 -- O 55                  -0.06        2.76790
             Al 2  -- Al 10                 -0.19        2.76831
              O 54 -- O 57                  -0.06        2.76881
              O 6  -- O 49                  -0.06        2.76931
             Al 4  -- Al 31                 -0.14        2.76981
              O 53 -- O 66                  -0.06        2.77019
              O 46 -- O 63                  -0.07        2.77037
              O 14 -- O 19                  -0.07        2.77135
              O 57 -- O 59                  -0.05        2.77154
             Al 14 -- Al 29                 -0.27        2.77156
              O 11 -- O 46                  -0.06        2.77209
              O 16 -- O 32                  -0.05        2.77256
              O 52 -- O 53                  -0.05        2.77278
              O 30 -- O 68                  -0.05        2.77330
              O 18 -- O 20                  -0.06        2.77373
              O 54 -- O 56                  -0.06        2.77374
              O 9  -- O 42                  -0.05        2.77405
              O 5  -- O 12                  -0.08        2.77566
              O 2  -- Al 38                 -0.04        2.77602
              O 55 -- O 58                  -0.06        2.77627
              O 13 -- O 53                  -0.05        2.77663
              O 23 -- O 30                  -0.07        2.77785
              O 39 -- O 54                  -0.05        2.77817
              O 48 -- O 55                  -0.05        2.77947
             Al 42 -- Al 47                 -0.15        2.78054
              O 25 -- O 26                  -0.08        2.78068
              O 8  -- O 24                  -0.06        2.78141
             Al 8  -- Al 23                 -0.21        2.78268
              O 37 -- O 58                  -0.06        2.78417
              O 20 -- O 54                  -0.05        2.78618
             Al 36 -- Al 39                 -0.16        2.78732
              O 1  -- O 32                  -0.07        2.78787
              O 37 -- O 66                  -0.05        2.78839
             Al 25 -- Al 32                 -0.14        2.78951
             Al 32 -- Al 35                 -0.19        2.79242
              O 3  -- O 18                  -0.05        2.79266
             Al 16 -- Al 21                 -0.11        2.79377
              O 37 -- O 57                  -0.05        2.79379
              O 29 -- O 57                  -0.06        2.79639
             Al 23 -- Al 32                 -0.23        2.79803
              O 44 -- O 45                  -0.06        2.79806
              O 21 -- O 23                  -0.05        2.79989
              O 24 -- O 63                  -0.04        2.80024
              O 25 -- O 60                  -0.05        2.80067
              O 67 -- O 70                  -0.05        2.80195
              O 45 -- O 62                  -0.05        2.80224
              O 27 -- O 60                  -0.05        2.80250
              O 19 -- O 69                  -0.06        2.80368
              O 12 -- O 51                  -0.05        2.80415
              O 51 -- O 52                  -0.06        2.80514
              O 4  -- O 54                  -0.05        2.80565
              O 56 -- O 65                  -0.05        2.80568
             Al 26 -- Al 41                 -0.23        2.80686
              O 7  -- O 9                   -0.06        2.80700
              O 14 -- O 30                  -0.05        2.80958
              O 17 -- O 51                  -0.05        2.81001
              O 50 -- O 70                  -0.05        2.81142
             Al 6  -- Al 33                 -0.25        2.81318
              O 22 -- O 37                  -0.05        2.81372
              O 7  -- O 29                  -0.06        2.81435
              O 48 -- O 52                  -0.05        2.81543
             Al 12 -- Al 27                 -0.20        2.81624
              O 15 -- O 66                  -0.05        2.81702
              O 24 -- Al 44                 -0.05        2.81808
              O 23 -- O 58                  -0.04        2.81900
              O 14 -- O 23                  -0.05        2.82066
              O 67 -- O 69                  -0.05        2.82073
             Al 25 -- Al 34                 -0.19        2.82102
              O 18 -- O 25                  -0.05        2.82531
              O 15 -- O 53                  -0.05        2.82575
              O 29 -- O 46                  -0.05        2.82588
              O 6  -- O 43                  -0.05        2.82727
              O 1  -- O 51                  -0.05        2.82784
              O 49 -- O 71                  -0.06        2.82787
             Al 11 -- Al 44                 -0.17        2.82855
              O 31 -- O 32                  -0.06        2.82891
             Al 2  -- Al 8                  -0.09        2.83088
              O 2  -- O 36                  -0.06        2.83496
             Al 29 -- Al 38                 -0.15        2.83570
              O 50 -- O 66                  -0.05        2.83745
              O 54 -- O 61                  -0.05        2.83778
             Al 7  -- Al 18                 -0.13        2.83896
              O 1  -- O 21                  -0.06        2.83920
             Al 13 -- Al 22                 -0.18        2.83938
              O 13 -- O 27                  -0.05        2.84039
              O 20 -- O 46                  -0.03        2.84566
              O 31 -- O 70                  -0.05        2.84599
              O 36 -- O 37                  -0.05        2.84845
              O 19 -- O 59                  -0.05        2.85108
              O 12 -- O 14                  -0.06        2.85162
              O 19 -- O 40                  -0.05        2.85222
              O 12 -- O 49                  -0.04        2.85263
              O 9  -- O 26                  -0.05        2.85310
              O 17 -- O 34                  -0.04        2.85452
              O 14 -- O 34                  -0.05        2.85554
              O 51 -- Al 34                 -0.04        2.85630
             Al 18 -- Al 21                 -0.20        2.85735
              O 49 -- Al 45                 -0.06        2.85968
              O 32 -- O 66                  -0.05        2.85997
              O 23 -- O 55                  -0.05        2.86012
              O 8  -- Al 31                 -0.06        2.86022
              O 9  -- O 17                  -0.05        2.86047
             Al 25 -- Al 46                 -0.20        2.86077
              O 26 -- O 60                  -0.04        2.86438
              O 20 -- O 21                  -0.05        2.86572
             Al 26 -- Al 29                 -0.27        2.86607
              O 31 -- O 71                  -0.04        2.86928
              O 56 -- O 57                  -0.05        2.86962
              O 36 -- O 65                  -0.05        2.87121
             Al 13 -- Al 46                 -0.14        2.87157
              O 38 -- O 54                  -0.04        2.87204
              O 44 -- O 63                  -0.04        2.87371
              O 9  -- O 31                  -0.04        2.87384
              O 4  -- O 59                  -0.05        2.87456
              O 24 -- O 26                  -0.05        2.87551
             Al 1  -- Al 27                 -0.17        2.87721
              O 26 -- O 34                  -0.04        2.87934
              O 13 -- O 52                  -0.04        2.87987
              O 22 -- O 56                  -0.05        2.88203
              O 40 -- Al 1                  -0.05        2.88267
              O 40 -- O 48                  -0.04        2.88409
             Al 11 -- Al 20                 -0.17        2.88575
              O 11 -- O 44                  -0.04        2.88693
              O 35 -- O 67                  -0.04        2.88845
              O 23 -- O 33                  -0.04        2.88979
              O 6  -- O 45                  -0.04        2.89114
              O 25 -- O 27                  -0.04        2.89259
             Al 8  -- Al 47                 -0.21        2.89945
              O 58 -- O 66                  -0.04        2.90073
              O 49 -- O 51                  -0.04        2.90086
              O 9  -- O 62                  -0.04        2.90309
             Al 24 -- Al 27                 -0.15        2.90463
             Al 34 -- Al 35                 -0.14        2.90686
              O 15 -- O 68                  -0.04        2.91002
              O 10 -- O 25                  -0.05        2.91003
              O 59 -- O 66                  -0.05        2.91249
              O 24 -- O 62                  -0.04        2.91317
              O 33 -- O 58                  -0.05        2.91468
              O 7  -- O 64                  -0.04        2.91508
             Al 37 -- Al 44                 -0.17        2.91774
             Al 3  -- Al 5                  -0.19        2.91957
             Al 20 -- Al 35                 -0.24        2.92005
              O 52 -- O 71                  -0.04        2.92144
              O 31 -- O 33                  -0.04        2.92184
             Al 28 -- Al 31                 -0.19        2.92298
             Al 12 -- Al 15                 -0.16        2.92330
              O 5  -- O 32                  -0.04        2.92577
              O 16 -- O 35                  -0.04        2.92588
              O 15 -- O 16                  -0.05        2.92749
              O 10 -- O 56                  -0.04        2.93127
              O 39 -- O 41                  -0.04        2.93169
              O 46 -- O 61                  -0.04        2.93481
              O 44 -- Al 30                 -0.06        2.93482
              O 28 -- O 47                  -0.04        2.93537
              O 6  -- O 47                  -0.05        2.94151
              O 44 -- O 60                  -0.03        2.94379
              O 6  -- O 63                  -0.04        2.94424
             Al 27 -- Al 34                 -0.10        2.94708
             Al 27 -- Al 38                 -0.14        2.94723
             Al 7  -- Al 28                 -0.16        2.94754
              O 42 -- Al 18                 -0.06        2.94812
              O 52 -- Al 34                 -0.04        2.94876
              O 62 -- O 70                  -0.03        2.94896
             Al 7  -- Al 16                 -0.15        2.94929
              O 34 -- O 35                  -0.04        2.95020
             Al 15 -- Al 24                 -0.12        2.95090
              O 13 -- O 16                  -0.04        2.95295
             Al 7  -- Al 42                 -0.14        2.95312
              O 40 -- O 55                  -0.03        2.95347
              O 22 -- O 41                  -0.04        2.95615
              O 9  -- O 28                  -0.05        2.95685
              O 25 -- O 65                  -0.04        2.95926
             Al 4  -- Al 7                  -0.07        2.96168
             Al 21 -- Al 30                 -0.14        2.96335
              O 17 -- O 31                  -0.03        2.96395
             Al 34 -- Al 37                 -0.14        2.96477
             Al 4  -- Al 41                 -0.11        2.96654
              O 5  -- Al 36                 -0.02        2.96888
              O 38 -- Al 27                 -0.05        2.97159
              O 32 -- O 51                  -0.03        2.97301
             Al 18 -- Al 45                 -0.18        2.97361
             Al 14 -- Al 19                 -0.13        2.97439
              O 11 -- O 64                  -0.04        2.97508
              O 18 -- O 21                  -0.03        2.97597
              O 2  -- O 64                  -0.04        2.97631
              O 30 -- O 51                  -0.03        2.97775
              O 3  -- Al 4                  -0.02        2.97829
             Al 32 -- Al 47                 -0.12        2.98210
             Al 6  -- Al 45                 -0.20        2.98308
              O 10 -- O 61                  -0.04        2.98360
             Al 3  -- Al 7                  -0.11        2.98418
              O 69 -- Al 46                 -0.06        2.98458
              O 5  -- O 19                  -0.04        2.98642
              O 51 -- O 68                  -0.04        2.98911
              O 8  -- O 35                  -0.04        2.99017
              O 12 -- O 19                  -0.04        2.99197
              O 2  -- O 3                   -0.03        2.99482
             Al 15 -- Al 36                 -0.16        2.99577
             Al 38 -- Al 43                 -0.06        2.99578
              O 15 -- Al 1                  -0.03        2.99784
              O 24 -- O 65                  -0.05        2.99878
              O 18 -- O 56                  -0.03        2.99975
======================================================================


Writing analysis data to al2o3-120.castep_bin

Writing model to al2o3-120.check
 
 A BibTeX formatted list of references used in this run has been written to 
 al2o3-120.bib
 
Initialisation time =     12.95 s
Calculation time    =  78647.08 s
Finalisation time   =      1.40 s
Total time          =  78661.43 s
Peak Memory Use     = 8886768 kB
 
Overall parallel efficiency rating: Good (72%)
 
Data was distributed by:-
G-vector (64-way); efficiency rating: Good (75%)
k-point (2-way); efficiency rating: Excellent (99%)
