250
Lattice="17.211208 0.0 0.0 0.0 17.211208 0.0 0.0 0.0 17.211208" Properties=species:S:1:pos:R:3:QM_forces:R:3:FF_forces:R:3 QM_energy=-40598.96369134549 FF_energy=-40599.15272413982 QM_virial="16.521898156411794 17.32345354453986 -1.6471420856266443 17.32345354453986 45.690084808489594 -4.814671063217341 -1.6471420856266443 -4.814671063217341 9.881252463972057" FF_virial="0.0 0.0 0.0 0.0 0.0 0.0 0.0 0.0 0.0" pbc="T T T"
Si       0.76520253       1.30326714       0.94586966       0.08913391      -0.51591615       1.84411239       0.04569793      -0.66361572       2.07073708
Si       3.68353232       0.46758989       1.03291061      -0.36593591      -0.32895998       0.03345642      -0.33919207      -0.27989195       0.00257935
Si       1.34098209       3.19639509       3.31362625      -1.27000208       1.10783017      -2.25785600      -1.19762323       1.11312041      -2.16519274
Si       3.38437945       3.53575344       1.28440683       1.02941644       0.64775836       0.81876851       1.01035015       0.66825394       0.77679013
Si       5.40924901       2.30052987       3.85689022       0.58215281      -1.28625100      -0.57318629       0.57248926      -1.26715375      -0.63591182
Si       7.05984516       1.11973122       2.24405234      -0.44588726       0.74039061      -0.25052615      -0.46739715       0.73007431      -0.27555182
Si       5.53156834       1.69731670       0.36198097       0.45227964       0.37800103      -0.29745835       0.41567370       0.33411851      -0.28224857
Si       0.36914867       5.22853171       1.59196091       0.11611049      -0.20330325       0.47792118       0.09643706      -0.21003358       0.46376908
Si       2.49955571       6.15465957       1.12892583       0.18958124       0.13235586      -0.18898829       0.23096603       0.13370302      -0.19213316
Si       6.11669714       7.91255265       0.92295785       0.78711601       1.16085712       0.55821068       0.87747641       1.19462683       0.46799565
Si       4.66764699       4.48927153       3.58434798      -1.11317124       1.11789142      -0.87564581      -1.09634939       1.16155921      -0.91000007
Si       4.56219407       7.52301161       2.53864478       0.34652984      -1.64372709      -0.68184490       0.15256960      -1.66102717      -0.50697238
Si       6.94050810       4.55216646       3.43793080       1.19370357      -0.17356763       0.05282131       1.22317561      -0.17093950       0.07266541
Si       7.98074394       7.23810468       4.39281261      -0.97802965       1.37314339      -1.08905967      -1.03188192       1.42380177      -1.12185558
Si       0.78421858       9.33817779       2.09187545      -0.12311566      -0.69043161      -0.83958337      -0.19569205      -0.63664637      -0.91208842
Si       3.96569846      10.47810653       3.91570923       1.04201026       2.49876763       1.46750757       0.95331881       2.32889884       1.38532396
Si       3.99202961      12.99934715       3.81291515       1.31935307      -1.72421182       0.01290887       1.29473541      -1.64955627      -0.00596703
Si       2.89850659       8.83281411       3.03202354      -2.77929954      -0.06084696      -0.14584686      -2.57255011      -0.00729720      -0.07924150
Si       8.11758721       8.96491887       2.46649464      -1.56930927      -0.90394322       1.04841954      -1.54947660      -0.89159084       1.02926480
Si       6.07491468       8.77686457       3.91773803       0.30571588       0.69181959       0.22120586       0.37299795       0.70222051       0.21242098
Si       2.27158585      14.42139249       3.28803844      -0.87339893       0.99709828      -0.04478668      -0.83137674       0.93029566      -0.05530673
Si       1.89058140      16.25393589       1.37724060      -0.28129900      -0.63409846       0.00528621      -0.28846867      -0.64250994      -0.00430058
Si       0.43153979      13.32381228       2.02945793      -0.21452025       0.63563430      -0.24402347      -0.18142514       0.69528860      -0.24109870
Si       5.07264775      15.78184878       1.51761282       0.11065938       0.12104526      -0.39768051       0.13322594       0.01872284      -0.37670181
Si       7.27585141      16.97555928       4.12161730       2.28525247       1.77669180       0.34744889       1.94368456       1.57403109       0.23464608
Si       5.63762057      15.65257698       3.86414371      -1.64244981      -1.02527143      -0.56716563      -1.38340871      -0.85023702      -0.57339938
Si       4.72601661      13.40762555       1.45860831      -0.37214609      -0.33830819      -0.73710746      -0.35593351      -0.24776690      -0.73575458
Si       6.54333908      13.54629565       3.93060562      -3.16274579       0.33840465      -2.08799174      -3.12334412       0.33125901      -2.07617643
Si       7.52981874      13.51691703       1.32665712      -0.57777816      -0.03870829       0.03515463      -0.59597971      -0.06289651       0.09447071
Si       2.96516795       3.23994672       4.71154884       1.61225386      -0.39349955       1.72634651       1.43862362      -0.45014000       1.73185565
Si       3.60587279       2.79377593       8.56835283       0.26402361      -0.10156389      -0.20455248       0.28430752      -0.18221243      -0.20237626
Si       1.27191371       3.32320859       7.32054940      -0.92124919      -2.24329014       1.77343668      -1.06617459      -2.41047898       1.81094042
Si       2.00130734       1.48261322       6.10033035       0.18506143      -0.73904693      -0.31768794       0.21500779      -0.70863199      -0.33860034
Si       6.14297806       1.48655793       5.91491143       0.16681129       0.04629639      -0.27467845       0.20244812      -0.01603058      -0.21338330
Si       6.31666801       2.85864316       7.74623359      -0.99937317      -0.37823340      -0.00632195      -1.01611783      -0.39802985       0.00997112
Si       8.48504852       3.04062767       8.65506039      -0.24740395       1.94091154       0.69217026      -0.22731569       2.03535840       0.51259007
Si       0.88277498       6.39688413       7.72566745       0.63163958      -0.40716592      -0.34279287       0.52525925      -0.41859247      -0.31668397
Si       1.14371188       8.55632059       8.39347539      -2.45185419       1.20490772      -1.06323987      -2.50375052       1.31381320      -1.17234461
Si       2.39669589       4.98727242       6.62420767       0.26873880       2.15844528      -1.37929587       0.32644233       2.31679073      -1.54622976
Si       3.65040744       6.57198388       4.52660011       0.79958568       0.45279523      -0.09568961       0.89268319       0.52351693      -0.16560364
Si       4.39081865       4.89927721       7.52441063       0.35802735       0.03631387       0.25961453       0.48062433       0.07539650       0.30775621
Si       1.59056280       5.52336283       4.48160106      -0.62691479      -0.55885380      -0.90427420      -0.61567715      -0.65100271      -0.86452176
Si       6.79055005       8.03439548       7.92891652      -1.63004868       0.18957647      -0.29119354      -1.60789111       0.30533633      -0.23086464
Si       8.08515212       6.19783376       7.56726577       1.27647512      -0.81673157       0.47978289       1.40525377      -0.82974422       0.48587962
Si       7.34827744       4.85461777       5.83217684      -1.04822831      -0.91662061      -0.33531414      -1.08216260      -0.96713363      -0.41376010
Si       5.75575033       6.82718205       6.03436991      -0.58941323      -0.26432963      -0.30483467      -0.55688454      -0.28185718      -0.32477690
Si       6.30761994       4.91082958       8.67314751       0.98472050       0.87163291       0.60381427       0.92512247       0.91441342       0.70311719
Si       3.64023415      11.64878149       8.32054741       0.27967343       0.50595021       1.12769537       0.27173877       0.51246794       1.13986640
Si       0.88283276       9.98464820       4.49830438       0.46045708      -0.42208060       0.91370190       0.49808573      -0.32798892       0.92082528
Si       1.73544606      10.29354591       7.04725056      -0.65334388       0.16800203      -0.43786396      -0.65055579       0.16205119      -0.46698993
Si       2.71070036      12.07353774       6.07245241       0.63663885       0.93704739      -0.93731012       0.60593514       0.93448179      -0.90852932
Si       0.64127702      12.74879957       8.59224736       0.38590539       0.84427658       1.42748431       0.33153560       0.82808265       1.27719152
Si       5.29119313       9.36129348       6.07202803       0.07435960       0.52078742       0.45574323       0.07360802       0.52728782       0.48691660
Si       6.98652766      12.76200650       8.17917492       0.62538723       0.72493372      -1.90103709       0.62603834       0.58295521      -1.77919133
Si       7.70410860      10.86721328       4.63759220       0.16799164      -0.92985814       0.13194724       0.15421821      -0.95965975       0.15046931
Si       7.40124436      10.77585334       7.09886791      -0.58631157      -0.89529106      -0.58361380      -0.59947441      -0.89159136      -0.59482567
Si       2.00689167      14.87507417       7.93959194      -1.79248580       0.10794188       0.38736813      -1.73797677       0.09583900       0.44418505
Si       2.25770988      15.19548078       5.71485978      -0.10773940       0.60852933      -1.33528497      -0.11254103       0.59583921      -1.32058445
Si       8.38779348      13.14414435       4.81088076       3.63366360      -0.44927625       2.19996874       3.57314836      -0.41204363       2.16864805
Si       7.18172635      16.84589307       6.90942880       0.19500591      -0.85089480       0.53335921       0.22731340      -0.82783539       0.50370610
Si       4.56970436      17.00143360       5.45597243      -1.33122794      -0.63297904       0.39317469      -1.34691994      -0.56747118       0.43951911
Si       1.90983541       3.29274032      10.14762224       0.66613365      -0.51757797      -1.20927400       0.57417771      -0.49401736      -1.10646693
Si       0.72709588       0.26651242      11.56573579       0.48727896       0.60170888      -0.27743635       0.44434415       0.53931646      -0.31127892
Si       0.55922323       3.75062640      11.84515700      -1.57459534      -2.42657104       2.23869319      -1.50608246      -2.45235221       2.18840413
Si       7.90969512       0.79826414       9.04244899      -1.03386076      -0.28797061      -0.58253132      -1.17419692      -0.33994270      -0.66956303
Si       7.92933432       3.56193487      13.00386421      -0.73881543      -2.23330588      -0.15441090      -0.66927519      -2.12637151      -0.14879670
Si       5.85911167       4.23574512      12.14003700      -0.33746928       0.34629682      -0.19324157      -0.29686092       0.38672201      -0.27612264
Si       4.41469239       5.96399192      11.42253284      -0.13345020       0.76228583      -0.28434409      -0.11948223       0.79815336      -0.28789659
Si       0.59163886       5.75753202      11.09700994      -0.56191787       1.91127659      -0.50705356      -0.50479143       2.01804784      -0.42154476
Si       2.55797356       5.54706883       9.79221994       1.04304737       0.87374583      -0.40579512       1.04079113       0.87608174      -0.40186189
Si       2.55878176       8.15738865       9.92092399       2.30724271      -0.49525236       3.20230116       2.41318124      -0.53041874       3.30024973
Si       1.09296021       7.74766682      12.17540707       0.01767083       0.43341257      -0.41680660       0.00314068       0.30392028      -0.42844589
Si       7.10157525       5.72819990      10.66939494       0.60856453       0.43368270       0.58185122       0.54905657       0.42102892       0.45060939
Si       5.61488212       7.73007191      10.02254579      -0.40667435      -0.08245871       0.85926456      -0.40386929      -0.10992221       0.87914350
Si       6.40190027       7.19814551      12.77198445      -0.25073496      -1.87447562       0.67346087      -0.26627407      -1.90850881       0.68382628
Si       1.94452614      11.16202171      10.38653474       0.13191574       0.14276349      -0.86988554       0.11942830       0.15403678      -0.86050086
Si       4.03523034       9.27013677      12.03876670      -0.72418870      -0.23510161      -0.52456174      -0.76032221      -0.30539408      -0.48473846
Si       6.77747833       9.27166196      12.15241468       1.08093227      -0.33160833      -1.68479638       1.06911157      -0.20987018      -1.65802143
Si       8.52661560       9.16727051       8.75913792      -0.38859739       0.54775756       1.93976225      -0.51886982       0.47650391       1.98476103
Si       5.08717463      10.86571989      10.55244338      -4.57844533      -2.88569587       0.38089979      -4.27150088      -2.67474530       0.26471659
Si       6.70816709      11.97618798      10.16677847       4.33925857       1.87476590       1.10210300       4.08913103       1.66799269       0.95714604
Si       1.00491172      16.70986072       9.20306314      -0.47748053       0.13922567       0.16422889      -0.46910721       0.12315041       0.19708934
Si       3.68122673      14.22500281       9.16785073       1.60658062      -1.59788803       1.50280017       1.56447231      -1.56833872       1.41976140
Si       3.16171464      14.04981470      11.78962057      -0.13172331      -2.57244026      -3.17861099      -0.21966642      -2.72476271      -3.13798137
Si       3.90252054      15.75023227      12.78009970       1.75955786       3.00981072       0.94160987       1.73520880       3.11677540       1.15101339
Si       6.06532641      14.79671211       8.92200381      -0.83740004       0.99802098      -1.52992580      -0.91430435       1.03685224      -1.49002322
Si       6.94548926      14.18042477      10.88059210       0.91270442       0.24115073       1.59591531       0.91797366       0.38797536       1.63761724
Si       0.63519383       1.02666131      15.91263469      -0.44466266      -0.91842593      -1.96134307      -0.41271312      -0.88908402      -2.09790954
Si       1.84654033       2.81596219      15.07456897       0.58015729       0.60680022      -1.20597209       0.59330998       0.58976185      -1.15454054
Si       1.45503330       3.35664438      17.26892218      -0.68977464       0.90750076       0.42755774      -0.58284238       1.07764033       0.35052409
Si       4.89710809       2.89145759      13.73277513      -0.12198322      -0.07315465       1.20041525      -0.14423879      -0.15880903       1.27597659
Si       8.43817920       1.48348329      15.19846187       0.42673301       0.71693126       0.15364032       0.43167647       0.76129028       0.12599603
Si       7.46785275       3.61139681      17.12291496       0.22589238      -0.46141256      -0.58069952       0.21877884      -0.45466506      -0.57087157
Si       5.36621843       4.25981046      15.82661672       0.04587898      -1.29105418       0.24954055       0.04414291      -1.24865026       0.26777144
Si       1.86156654       6.47976752      14.12317580      -1.05704739      -1.61674117      -0.91883752      -1.08113142      -1.59350638      -0.95960725
Si       2.82864969       8.25268971      14.84443383       0.95634739       2.55092608       1.29911409       0.86527355       2.53038159       1.23511823
Si       1.14716515       8.34933872      16.92058997       0.48326738      -0.73143024      -0.16953511       0.46495028      -0.74429023      -0.15358262
Si       4.94983826       8.09981590      15.88052114      -2.62216553       0.83092760       0.15766404      -2.54393428       0.64080636       0.25859401
Si       5.94222670       6.33524733      16.61880342       1.40627092      -2.48705401      -0.71920072       1.36155430      -2.43005832      -0.75640064
Si       8.26743887       7.28716362      15.50026621      -1.53876862       0.74015660      -1.50346061      -1.52483142       0.59368000      -1.36941876
Si       2.61803527      10.75594870      13.77940010       0.49568600      -3.07633901       0.04780758       0.31577238      -2.93430236       0.07319419
Si       4.29323028      12.15580568      13.80908360      -0.03306941       1.65353984       0.55046711      -0.16871246       1.67169920       0.59179021
Si       0.69627384      11.72351811      14.13205851      -1.88595934       0.33054960      -0.39411110      -1.80732219       0.08367575      -0.36198438
Si       2.27182484      10.62568519      16.37205960       0.21048415       0.36489910       0.06358849       0.23184387       0.39400796       0.06875877
Si       8.66906977       9.54203603      16.00949037       0.06685807       0.13174651       0.99360199       0.07067358       0.15924632       1.01744763
Si       6.11181780      11.15257297      13.04327284      -0.97021333       0.40013329       0.56780465      -0.69645630       0.23703225       0.52396670
Si       6.48212562       9.33585995      15.00178064       1.65210857       1.61346607      -1.47301864       1.75467779       1.69403652      -1.48374617
Si       8.22653323      11.49358203      13.46073585       1.25072513       0.32375804      -1.31674962       1.15878337       0.31664122      -1.18964570
Si       4.56440559      11.71694193      16.67330838      -0.11322948       0.68887312      -0.08079176      -0.10912536       0.68295401      -0.07887965
Si       3.07919923      15.60312601      14.92688810      -0.52746160      -0.63683431       1.20883235      -0.44389475      -0.65658135       1.02803160
Si       0.77352289      16.27733044      13.83112818       0.42226023       0.43526143       1.38313819       0.42090474       0.41833748       1.38068597
Si       1.93032399      13.59127693      13.61877728      -0.35472689       1.04195304       0.67873028      -0.21699839       1.24098496       0.56052181
Si       2.54537864      13.71407485      17.10126992       0.29367064       0.12763165       0.01121645       0.29994535       0.14617737       0.00339658
Si       8.12626240      16.25008662      15.81021780      -0.81973049      -0.13183267       0.19939700      -0.88740526      -0.18948492       0.30659015
Si       5.09347195      16.66103471      16.13195635      -0.64191957       0.34095825       1.18723037      -0.67614921       0.34956835       1.24761412
Si       5.16162845      14.16632383      14.55206852      -0.03351108      -0.46366116       0.98468595      -0.03638997      -0.40559367       1.01076888
Si       6.19088259      16.15262994      14.14716144       0.66004852       0.73189873      -0.78218599       0.64399316       0.69117712      -0.81159597
Si       6.91293558      13.10186528      16.07018002      -0.15450966      -0.36681633       0.58165160      -0.18054660      -0.38464153       0.53522511
Si      12.22890988       1.98035184       3.54489034       0.74029873       1.86245581       0.21296591       0.66297702       1.73287781       0.27785192
Si       8.80290679       2.86180491       2.42098610      -0.42266076       0.50422759       0.33854747      -0.44460642       0.49000947       0.35181478
Si      11.72609900       0.56104192       0.24374632      -1.59997241      -0.68795963       0.97137211      -1.74606989      -0.62322039       1.05629589
Si      16.80362741       1.66149455       3.06366187      -0.60383335       0.03884859      -0.12932454      -0.62085493      -0.00111819      -0.16393251
Si      13.92298404       3.27262164       1.87198827      -0.19660838      -2.00948357       0.35300452      -0.18964360      -2.11983439       0.34573138
Si       9.44500862       5.12260368       1.93096524      -0.61549507       0.36907141      -0.39485087      -0.65122102       0.38376200      -0.41859424
Si      11.39872173       6.12799533       2.65227896       1.24128225      -0.07178873       0.10861666       1.27618405      -0.06664643       0.10300202
Si      13.83242050       5.52921712       1.94959538      -0.38510731       1.70478280       2.20307266      -0.37875962       1.82457822       2.28169630
Si      15.89532214       7.18870787       2.58642029       0.11486604      -0.20273318      -0.15921050       0.06224162      -0.19425351      -0.25548554
Si      14.71594366       7.74927733       0.60315899      -1.51234291       2.68865268       0.77238804      -1.47190435       2.61888893       0.78354704
Si       8.95285183      11.72548784       2.06867737      -0.03098305      -0.86828058      -0.43958149      -0.06883810      -0.83988137      -0.45372039
Si       9.73160933       9.59225470       1.14011723       1.27315645       0.40062605      -1.52385445       1.22411850       0.35333526      -1.51684607
Si      10.74020454      12.96167374       1.16178626       0.83334168      -0.10669351       0.11703214       0.84278020      -0.12667970       0.10863294
Si      10.42351011      12.43611401       3.84307531      -0.08997737       0.00583672      -0.49429363      -0.06161420       0.00475248      -0.46508129
Si      16.70339002      11.45386470       3.34518376      -1.17421420       0.08112814      -0.17593869      -1.17464158      -0.01453404      -0.15826441
Si      14.09827307      11.40244759       3.28059626       0.61214009       0.02202821      -0.52672773       0.59235107       0.06793617      -0.60242411
Si      14.11973256       9.08924007       3.51393544      -0.12747870      -1.13830227       1.05263831      -0.12088578      -1.22179551       1.07944416
Si      13.20537964      11.52518839       0.95559934      -1.33023308       0.87813197       1.73573085      -1.32376755       0.88480964       1.76258522
Si      17.22929621      11.30583333       0.86387883       0.49619416      -0.38433405      -0.71770413       0.49238577      -0.43739852      -0.71904255
Si      10.70246064      16.17892204       2.06739113       0.87629209       0.42217176      -0.34153507       0.83453607       0.36806782      -0.41473576
Si      11.44301596      17.23087668       4.35940493       0.04086404      -1.34204116       0.14632151       0.18985759      -1.19532395       0.06487326
Si       9.42286400      14.87814733       0.39449814      -0.21540579       0.48746529       0.32512351      -0.15379356       0.58047554       0.31916721
Si      13.50727101      14.68287647       2.61028237      -2.08335570      -0.81899686      -1.98350484      -2.20700989      -0.95668889      -2.14239917
Si      15.13270684      13.97123329       1.33887372       2.28349209      -0.03871284      -0.54631525       2.33737777      -0.13326643      -0.74672522
Si      13.75629526      15.96358028       4.30054008       0.18144650       3.07659749       1.86791250       0.17738780       3.22933368       2.10531828
Si      15.48026702      16.91050760       2.70740584       0.10674842      -0.47170536       0.34226060       0.17029639      -0.42457642       0.34042427
Si      11.38447122       2.91355407       7.26390119       0.08415927       1.09902983       0.78290923       0.11216362       1.11952965       0.76279441
Si       9.66683321       3.44308124       5.39213414       0.52939584       0.70474986      -1.99402769       0.51090865       0.62634756      -1.84781477
Si       9.24087918       1.91092791       6.96882240       0.61289671      -2.72688082      -0.99041838       0.58401351      -2.57218910      -1.05748129
Si      15.13626603       4.42560582       7.45771219      -0.78709876       0.38961792       3.81258833      -0.78148143       0.39647569       3.75635856
Si      15.43062878       3.95746633       5.41706678       1.44352987       1.53563354      -3.17852109       1.19264901       1.62303329      -3.13192158
Si      16.80373965       2.21180569       5.39986159       0.91965086      -1.63365503      -0.16676449       1.03839643      -1.74333435      -0.21639098
Si      13.16823606       1.40808393       7.61675025      -0.22631665      -0.56006968       0.63180157      -0.19534620      -0.56420759       0.56677329
Si      16.40170740       2.46254513       7.93902557      -0.91581104      -0.72640550       1.00081649      -0.85840837      -0.71225262       0.98054403
Si      15.12800291       0.50199571       6.65275373       1.06170534       0.34298674       0.07552716       1.02985395       0.34120235       0.09333049
Si      13.30327822       3.40619700       5.64946752      -1.18732073      -1.58395782      -0.69582182      -0.94738561      -1.68664644      -0.69022991
Si      11.87511155       7.36190355       4.58744622      -0.56735132       1.41074965      -1.60217306      -0.49368377       1.35032548      -1.45964605
Si       9.44268444       5.78730693       5.08677448       2.11983354      -0.63856721       0.49758500       2.21805985      -0.72003778       0.53140151
Si      11.84925705       5.16840819       5.65980841      -0.58756178      -0.00701476       0.17104668      -0.70981810       0.21510351       0.15512626
Si      10.76075331       7.16540275       7.43593478      -1.21124806       0.02615750      -2.72534127      -1.21207967       0.02230088      -2.73576333
Si      12.99985596       7.29664755       6.57969131       0.49110866       0.11243899       0.62010004       0.42311997       0.10383096       0.47200657
Si      16.65975840       8.09203556       4.66770891      -0.96839611       0.94801812      -0.59699438      -1.00008608       0.87925202      -0.53054061
Si      16.82935708       6.07607397       5.70205960      -0.30989351      -0.69288067      -0.01658344      -0.35975925      -0.68788728       0.04540568
Si      15.80523124       7.56411157       7.69546650      -0.49444469       1.40192041      -0.37173784      -0.44775882       1.36455301      -0.35962143
Si      12.17746353      12.47164415       5.59201747      -2.00105835       1.04914245      -0.82224818      -2.00078684       1.01952496      -0.78849366
Si       9.86414368       9.71406680       7.12967818       0.12870957       0.29258210      -2.33438563       0.02226725       0.30763448      -2.45948412
Si       9.42802548      12.28927630       7.01046069      -0.37816809       0.76285507       0.09741634      -0.35164253       0.80009871       0.08811056
Si       9.89847243       9.16783185       4.61416772      -0.63441251      -0.13596459       0.34615256      -0.65214305      -0.12521573       0.34510143
Si      12.02983831       9.67085204       7.57618143       1.16716202      -1.02473220       0.98710604       1.36834448      -0.95099811       0.98583458
Si      17.06189744      12.48309063       6.49185950       0.02484277      -1.38897886       0.09316633       0.09832733      -1.37760390       0.26832060
Si      15.49932575      11.07420621       8.27421064       0.35790348       0.61933929      -0.58688481       0.38964497       0.60984367      -0.58507318
Si      14.26718181       9.36171242       6.03954175       0.41083424      -0.40076050       0.06857243       0.36679494      -0.42552821       0.07590379
Si      13.34053517      11.47232170       7.13218721       1.24196402      -0.25745751       1.33955800       1.14718528      -0.29759561       1.33315990
Si       9.28187190      17.03951005       5.39118303      -0.00743054       0.22581909       0.85979794      -0.02818196       0.22194716       0.95962173
Si      11.48399546      16.85486141       6.94597325      -0.16386936       0.18922208      -0.18816768      -0.15437841       0.22162431      -0.17172757
Si      11.29167542      14.55507120       7.48776895       0.91771323      -0.51057870      -2.06005261       0.90666102      -0.55279344      -2.06238671
Si      16.75479010      16.29331712       5.33426067      -0.03794889      -0.29391184      -0.46774516      -0.07861062      -0.32475188      -0.45244295
Si      13.95085678      13.46579305       4.59838182      -0.60885618      -1.25171393      -1.54869193      -0.54661458      -1.19061935      -1.46804260
Si      14.99222404      14.70430001       6.06745208       0.56740662       1.38738875       2.43466938       0.58851404       1.38021521       2.33565584
Si      14.24081472      14.48324002       8.57725776      -0.54136672       0.63980064      -0.72846793      -0.59937797       0.58085102      -0.83107005
Si      16.54692506      13.66781938       4.53718447       0.52050180       0.33298358      -0.57911571       0.49052099       0.41026537      -0.52495175
Si       8.98793466       2.79532762      10.87914996       0.58799280      -0.40798116       1.14816082       0.61570031      -0.34522368       1.27559201
Si      13.01805054       1.94111961      10.05390494       0.24073016       0.59370452      -0.20684339       0.19549417       0.58999072      -0.13760466
Si      12.15917787       3.09908120      12.94904901       0.09174847       0.25008874       0.52516220       0.11440189       0.20792228       0.56315477
Si      11.19430018       1.02893674      11.45129133       0.88402897       2.79685318      -0.55349401       0.76411370       2.82721505      -0.78904396
Si      16.11508101       1.38905962      10.23231549       0.62690487      -0.58230515      -0.96487592       0.53282804      -0.53439976      -0.84353293
Si      15.08983897       3.01152996      11.53014579      -0.17574298       0.12340968       0.16230583      -0.08694519      -0.03977586       0.10355668
Si      12.18654466       4.62177801       9.28222294       0.76713074      -1.06883766      -2.96271885       0.77051521      -1.04035903      -2.96219422
Si      11.29078028       7.16116413       9.51006567       0.79595925      -0.27785123       2.89389010       0.77827253      -0.29457087       2.90339041
Si      11.52687666       4.78757854      11.31419324       1.71109853      -0.12465924       3.72443720       1.66326898      -0.09451755       3.67909914
Si       9.70659791       5.02690992      10.19257207      -2.13178647       1.16424370      -1.18453434      -2.10425573       1.13136477      -1.12977702