118
Lattice="9.610056 0.0 0.0 -4.805028 8.322552 0.0 0.0 0.0 13.116254" Properties=species:S:1:pos:R:3:QM_forces:R:3:FF_forces:R:3 QM_energy=-35822.29696954207 FF_energy=-35822.576762794706 pbc="T T T"
O        2.97757927       0.10490210       1.14271942       1.93544664      -0.46443560       0.04190948       1.88279216      -0.42883298      -0.02967636
O        8.69403272       1.30958598       3.20529860       5.35728411       0.23595265       3.84534253       4.65374039       0.28329311       3.32586532
O        1.61320413       2.85157978       3.27315589      -1.43690012       0.77886134       0.56364927      -1.56813558       0.70921495       0.57939364
O        3.18756310       2.73397226       0.99527038      -2.77292362       1.33853623       2.18724393      -2.16454025       1.10092848       1.51388969
O        0.91887005       1.39609769       1.10159550      -0.69506106      -0.59300451       0.10578685      -0.70928779      -0.43341207       0.24525782
O        3.87172239       1.38682926       7.62676525       0.63014638       0.94367744      -0.63681284       0.00415062       1.44008893      -0.95357661
O        0.67938356       1.49051630       5.48921535       0.23339230      -1.29217574      -1.03620561       0.44622150      -1.23805460      -0.58062855
O        1.57856709       2.61910538       7.74964040      -1.90130452       1.73195557      -3.33806367      -1.39823162       1.60789275      -3.03682744
O        1.78888207       0.08490792       7.60996040      -2.73007824      -0.30356011       0.15682246      -2.73071582      -0.30587725      -0.11783358
O        0.67070384       4.02971743       5.49268221       0.53004102       2.11664737       0.58426194       0.42973226       2.29651153       0.07709488
O       -1.49507993       2.85463065       5.37964274      -1.70768966      -1.64090802       2.90242434      -1.54901540      -1.35903896       2.55906624
O        1.39957658       2.79965456      12.00275890       1.44523434      -0.19214524      -0.26769925       1.57412884       0.14419089      -0.02234597
O       -1.61306772       2.87590160       9.87261566      -1.41280639      -1.33348286      -0.92248398      -1.25032021      -1.56305804      -0.85471691
O       -0.57139597       3.95099110      12.01569437      -2.74068475       2.40432475       0.16421976      -2.65275885       2.34862139       0.52977621
O       -0.65362738       1.54172276      12.09712506      -2.17844270      -2.37885796      -2.05646594      -2.33507975      -2.47997514      -1.81006579
O        0.74421814       1.21909830       9.86854944      -1.60639903       0.93227716      -0.10346498      -2.06945199       0.83635586      -0.11288469
O        3.27009163       0.08335671       9.83023133       0.15114299      -1.72565087       0.20316440       0.29396620      -1.75951942       0.68769527
O       -0.88890316       4.18960573       3.19174364       0.17635273       0.01005911       2.27126229       0.18421512      -0.17439445       2.47099511
O        0.72296212       4.31550866       1.12317885       1.36565056      -0.94535598      -0.12758460       1.35111431      -1.05201456      -0.64556834
O       -3.09580539       5.40259139       3.19038320      -1.52628198       2.90520217       1.09902590      -1.37710515       2.99920204       1.27765267
O       -0.75781863       7.01802428       3.17873414      -0.94782489       1.60536758       3.06224291      -1.10267677       1.47911512       2.73328646
O        0.69967346       6.80040840       1.05842202       0.05057010       2.70952957       2.61508784      -0.14897595       2.42524070       2.72855811
O       -1.39811712       5.60491384       1.10913717      -1.57293546      -0.99771934      -0.99317373      -1.26506148      -1.26793641      -0.75877317
O        1.54087658       5.54816458       7.66036369      -1.46573551      -0.00120456      -1.11395276      -1.61529813       0.04104492      -0.77668382
O       -1.61785437       5.67315342       5.39184538      -1.48211341      -0.43768469       0.52567816      -2.15518423      -0.87110766       0.23640423
O       -0.62393777       6.88688839       7.73352524      -4.12513292      -3.19797000      -2.71916563      -4.01486414      -3.09387360      -2.64788358
O       -0.84234515       4.28845544       7.70202056       3.78113569      -0.14094191      -3.30830818       3.66972454      -0.11333562      -3.13844356
O       -1.75959480       8.26539110       5.49315482       2.03999419      -1.98373453      -3.05335020       1.92852265      -1.45689167      -2.91834997
O       -3.75736899       6.83659134       5.50033412      -1.68714223       1.57728875      -2.44731257      -1.49332893       1.50223688      -2.72245446
O       -0.78704469       6.90076245      11.92788008      -1.82447385      -1.25909083       1.73445936      -2.01376637      -1.23923190       1.77350331
O       -3.98278445       7.07127763       9.78612963      -1.01835122      -1.05480013       0.32367825      -0.85648162      -1.25892426       0.46412595
O       -2.98652885       8.20467142      12.10926392      -3.48181042      -1.74536992      -3.05430207      -3.27309969      -2.55438372      -3.47884620
O       -3.17832020       5.72750581      12.06063523       2.60448890      -1.72779441      -1.64963952       2.33352949      -1.89297734      -1.75693335
O       -1.59890192       5.33566314       9.92393697       0.18290401       2.03514254      -1.31523852       0.26006705       1.73282437      -1.20994681
O        0.91184493       4.17719292       9.80464157      -1.68986201      -0.05060008       0.13992202      -1.53644630       0.51979722      -0.34607861
O        6.35419085       0.06301996       3.37064157      -1.44553608      -3.65261978       0.72251879      -1.48428720      -3.29303726       0.39583855
O        8.02936325       0.10424564       1.11676742      -0.96320511      -1.68651283      -0.39374831      -0.62492453      -1.67263369      -0.14009143
O        4.12777890       1.18528252       3.23496416       0.29053879       1.45066418       0.37196170       0.16192450       1.54164571       0.32320630
O        6.50736745       2.96033135       3.19057658      -2.45912982      -2.09909993       1.52787652      -2.54966501      -1.85333693       1.65689698
O       -1.51976330       2.65174666       1.19218521      -2.86948542       0.85066073      -1.14927348      -2.36246692       0.66857894      -1.47042830
O        5.88007296       1.34689947       1.03734909      -3.45805134       0.31047743       1.07301911      -3.60200188       0.01305264       1.59825476
O        8.68485533       1.44617290       7.60437597       0.40368503      -0.51724782       0.11732430       0.47316611      -0.53155956       0.16318720
O        5.39764380       1.54766259       5.49465139       2.82142391      -1.57034439      -1.17194941       2.81539437      -1.49447031      -0.84763682
O        6.52608852       2.63048538       7.75875929      -0.07295107       1.77950905      -1.62061543      -0.08830512       1.64542579      -1.44553164
O        6.32594796       0.14605486       7.54580854       3.01856088      -1.19770451       0.52754162       3.21338496      -1.54647390       0.06162284
O        5.64836878       4.02671041       5.36129047      -3.86698008       1.26428658       3.32018981      -4.07356009       1.28429658       3.11969729
O        3.22370093       2.71096621       5.40540915       1.29655501       3.09051894      -0.63139136       1.43708484       3.64534567      -0.89066806
O        6.22933168       2.77641629      12.02364945       1.38691778       1.52063836      -0.26010434       1.29972529       1.83211307      -0.89485045
O        3.12017885       2.85639174       9.74166742       0.28840606       0.19732455       1.14109945       0.39915905       0.18646977       0.87806171
O        3.96590302       3.98518838      12.01195821       0.50631113       2.41279007       0.90794224       0.39225968       2.49370330       1.16461423
O        3.92205596       1.59714107      11.98815462       2.42364293      -2.26165673       0.36271629       1.94328307      -2.39863278       0.44795834
O        5.57163717       1.27273917       9.83423372       1.29518540       0.48213997       1.00168468       1.22904835       0.70081529       1.43166215
O        8.29394362       0.00492982       9.76797343      -3.10767255      -0.17570108       1.38771949      -3.26230766      -0.16964643       1.53862673
O        3.80310301       4.19259042       3.26807853       2.05484536       0.01710441       0.81847518       2.23390438      -0.02561349       1.31551422
O        5.47490973       4.30415837       1.11057861       1.31121826      -1.83288369       0.11116772       1.39602010      -2.13066417       0.22927706
O        1.61154697       5.49862793       3.24717036       1.44242040       1.07990669       2.40929528       1.30535965       1.29347791       2.37965258
O        4.14111281       7.13371600       3.35048533       1.49482709      -0.89904251      -0.61280866       1.71627648      -1.02387526      -0.67745969
O        5.51041091       6.84803613       1.02139019       1.34262949      -0.07837616       1.91892381       1.38723759      -0.33771630       1.72338156
O        3.31958989       5.61094757       1.15121617      -1.63220328       0.18453992      -0.60864216      -1.62831909       0.42339005      -0.85225933
O        6.34812161       5.58375972       7.69987070       0.83369836      -2.79371674       0.08371912       0.71659907      -2.90707110       0.18841858
O        3.22485158       5.72013261       5.41351590      -2.15980935      -0.87359689      -0.99717867      -2.14016194      -0.96307688      -1.09548184
O        4.19408798       6.84572281       7.65521047      -2.21807370       0.05961355      -2.72477723      -2.32806248      -0.04119899      -2.37113760
O        3.95414486       4.34416653       7.62883599       2.25698225      -1.93133502      -2.20170971       2.09083642      -2.24334063      -2.05418665
O        3.11061941       8.26315259       5.45831504       0.80373668      -1.51971613       0.04398609       0.99446800      -2.16574597      -0.18430503
O        0.83582126       6.95804105       5.52950463       0.08500578      -0.73948838      -1.90402660       0.45918423      -0.98209573      -1.25262507
O        3.89744803       6.91216640      12.01028252      -0.08290578      -0.16917565      -0.14496597       0.07710018      -0.37979895      -0.02237586
O        0.81249468       7.05504733       9.88469982      -1.46025583      -0.80099209      -2.60841271      -1.44546912      -1.03379001      -2.65236269
O        1.58750311       8.13038660      12.10769853       3.32090973       2.42611994       0.39357477       2.29883007       2.47945076      -0.49314723
O        1.57273291       5.68261314      12.04472281       4.08450382      -1.51750181      -1.97278064       4.48225528      -1.50582557      -2.29821671
O        3.12341141       5.52204604       9.74524182       0.15379153       0.20487323       1.92553854      -0.09831544       0.29671792       1.81490381
O        5.59132519       4.23975232       9.92742031       2.29189560      -1.64837145      -0.29390481       2.44932037      -1.52864353      -0.09863534
Al      -4.62409082       8.25724702       1.92335654      -3.28601335       3.49106485      -2.56137991      -3.51656621       3.71067851      -2.15747802
Al      -0.07043783       2.75963422       0.27050658       2.89353213       0.41179157       0.09020544       2.54612513       0.33505621       0.18585010
Al      -0.14581963       2.82528696       4.18740127       3.01516020      -0.38428342      -3.59488720       3.05469359      -0.62029427      -3.44662514
Al       2.42500239       1.43806323       6.21891529      -0.93419142      -1.04683746       2.97239062      -1.05973643      -1.56103351       3.10048189
Al       9.49977450       0.07812550       4.65800313      -0.25788024      -0.25907515       0.57547563      -0.40065947      -0.42342546       0.21235276
Al       9.50001273       0.01770825       8.40511026       4.31514351      -0.51138756       0.80877695       4.44461373      -0.42318328       0.71062123
Al      -0.08656754       2.83971632       6.77311057       1.97483680       0.32999136       0.34591469       1.70275512       0.24973835       0.38123247
Al      -0.04099996       2.74513272      10.64811208       2.59897701      -0.26486364       1.90304254       2.22407965      -0.39915121       1.86025992
Al       2.22297990       1.40512154       8.92607819       3.79794645      -1.29348723       1.01961341       3.77382616      -1.31177072       0.57166082
Al       2.30164424       1.35652168      12.80383564       0.75836886       2.65469052       3.01321741       1.13305792       3.16762155       3.27800686
Al       4.78072996       8.26783169      11.14970298       1.53631804       0.33800887       1.15963920       1.74890008       0.35397076       1.09030308
Al       7.22380478       4.06779769       1.91485221       1.04385755       1.88134237      -0.83667822       0.99211327       2.00158400      -0.74188101
Al      -2.33598178       6.95549910       0.32129021       0.17174594      -0.27726687      -1.52225766      -0.22395231       0.00117271      -1.84495570
Al      -2.33020368       6.95670247       4.14842327       0.03665508      -1.81775108       0.44927676       0.24338144      -1.63544065       0.39736394
Al       0.02891267       5.61858346       2.53328898      -1.41261127      -2.50210472      -3.37639374      -1.49655656      -2.25109721      -3.25739565
Al      -0.19533319       5.62073512       6.31708601       4.69235426      -1.35280995       0.74122859       4.99146371      -1.39093279       0.91155253
Al       7.16498148       4.18488156       4.59731837       1.58226954       0.40765830      -2.61391824       1.60008528       0.20933387      -2.66763041
Al      -2.24473256       4.14537523       8.57881400      -5.41170378      -0.83203264       1.09381635      -4.91146968      -0.51109218       0.61847302
Al      -2.39818064       6.84939614       6.88430169       0.02407326       2.89099705      -0.37782695       0.28834094       3.16694639      -0.43220796
Al      -2.47017789       6.87036848      10.64796260       2.47461085       2.30966774       1.13589830       1.75436630       2.54906813       1.19647561
Al       0.02514355       5.55928089       8.94193439       1.11757384       0.70563878       1.74663763       1.03432535       0.54985477       1.78845808
Al       0.13881396       5.57899429      12.93183911      -4.62816968      -2.08444830       0.21017425      -4.93375856      -1.83287929       0.42786519
Al      -2.31973292       4.17606459      11.13465279      -0.81951326      -0.45126195       2.40770468      -0.82323388      -0.35828179       2.58204874
Al       4.70065475       0.08461871       1.84062006      -1.46725487       0.13099733      -0.06942773      -1.31430596       0.19993001      -0.14296056
Al       4.72787164       2.77229165       0.31606070       1.22080762      -0.25504592      -1.52069500       0.54624483      -0.13387293      -1.08500802
Al       4.70158865       2.72680997       4.08562518       0.48165201      -0.89324228      -0.65060758       0.53328904      -0.76630320      -0.79023146
Al       7.09966946       1.31344892       2.50945222       1.62740755       1.89225133      -3.28037202       2.02284771       1.64827137      -3.02211465
Al       7.32247208       1.30466645       6.27851308      -3.94261668       2.96505435       1.07391301      -4.11178244       3.55064628       1.42549429
Al      -0.02221610       8.26066389       4.52508214      -0.09867343       2.38217213       0.46629591      -0.23306815       2.18563305       0.37806184
Al      -0.04838636       8.30253632       8.46249345       0.21772244       4.28811656       3.08480484       0.44855038       4.20962206       3.22379322
Al       4.94552130       2.75783793       6.77980883      -1.76961328      -0.07726323       1.93484945      -1.69923995      -0.30919808       1.77745278
Al       4.79246868       2.74886695      10.77850998      -1.20652208      -0.24621258      -2.04570060      -0.91025949      -0.34826694      -2.02253401
Al       7.37464240       1.30088015       8.95725516      -4.33610931       1.56430959       0.83992203      -4.30484141       1.38954274       0.96203638
Al       7.08592589       1.45998674      12.78856402       4.02440418      -1.58833186       1.38125435       4.21641510      -1.86183667       1.37985544
Al       0.14704921       8.23529147      11.27261168      -5.61832572       2.76005381      -3.59834762      -4.76636985       2.97846660      -3.20799370
Al       2.38107441       4.23054845       1.97817938      -0.84596513      -3.47447660      -1.92289362      -0.75496706      -3.63615114      -1.72508502
Al       2.26379553       6.96016005       0.25143080       4.48977190       0.11395906       1.18677789       4.52680728       0.31055383       0.97052673
Al       2.36913741       6.88828537       4.12747697       0.10398375       1.20387756      -0.11937020       0.23368881       1.41524309      -0.40701090
Al       4.67350725       5.59009492       2.43498909       1.93129375      -0.57551101      -0.33574065       1.76131014      -0.24580155       0.20231887
Al       4.76791909       5.51001388       6.22750949       1.24717665      -0.50775809       1.62830121       1.09580287      -0.35474857       1.61422614
Al       2.36530779       4.09125239       4.50510587      -1.37922918      -0.76621490       0.99929138      -1.14361131      -1.04932339       0.88745020
Al       2.27667938       4.12645856       8.51521598       2.77351154       0.27294524       0.27820303       2.79159029       0.15052098       0.23383129
Al       2.36758664       6.86672924       6.74271926       0.27790611       0.82603930       1.68479900       0.24931736       0.96016299       1.92025229
Al       2.28588107       6.91663008      10.78533310       4.06964477      -1.59885115      -1.03301684       4.20033767      -1.56138015      -0.75798184
Al       4.91799086       5.51675096       8.92582380      -2.64483136       1.09920432       0.76079014      -2.68291475       1.36409345       0.70760584
Al       4.98336499       5.47010827      12.93640826      -4.63918019       0.83419559      -1.33770900      -4.31908362       1.07273030      -1.90350135
Al       2.37252725       4.12719225      11.09885538       0.30843684       0.08207112       0.55206540       0.43199320       0.05506759       0.64326161
118
Lattice="9.610056 0.0 0.0 -4.805028 8.322552 0.0 0.0 0.0 13.116254" Properties=species:S:1:pos:R:3:QM_forces:R:3:FF_forces:R:3 QM_energy=-35821.87806727044 FF_energy=-35822.29696954207 pbc="T T T"
O        2.97174025       0.10408597       1.13539483       1.91858135      -0.49391140       0.04196940       5.71861921      -1.03274140       4.36046447
O        8.67725661       1.31182750       3.19232336       5.91333310       0.17433878       4.20665754       8.50170877      -3.97867318       5.76403701
O        1.60957284       2.84202935       3.26499409      -1.28529383       0.82828706       0.51608035      -0.40433097       4.59214052       3.04379368
O        3.19313186       2.71749218       0.97170838      -3.37352098       1.47856463       2.75024744      -3.95062450       2.44672173       1.71053963
O        0.91842925       1.39761008       1.10451221      -0.62146133      -0.69940882      -0.06752088      -7.15161719      -2.58608416      -1.37409174
O        3.84197312       1.39870450       7.62055238       1.18104120       0.50260717      -0.39167238       1.96264968      -0.04727767       3.82373500
O        0.67549483       1.48877138       5.50514128       0.12347791      -1.33033103      -1.47613775      -2.18251793      -0.43226489       0.59624658
O        1.58683321       2.61957807       7.75516918      -2.31098170       1.79673527      -3.58119445      -1.85914663       1.83737922      -0.19617472
O        1.78433895       0.08413698       7.59882105      -2.72843405      -0.33603624       0.42238045      -0.00533436       3.05692422      -0.46835255
O        0.66063349       4.03918724       5.46616591       0.62400394       1.92572500       1.01011504      -0.04442424      -0.08062598       2.07916530
O       -1.48759336       2.86177955       5.37263516      -1.83147894      -1.79683369       3.11015109      -1.77368742      -5.00213604       2.96742090
O        1.40622639       2.81544113      12.00203693       1.34156960      -0.45526380      -0.47706433       0.44523071      -1.05454560      -5.11062448
O       -1.60729105       2.86764230       9.87016589      -1.52356216      -1.08767892      -0.97689985      -3.41362168      -3.59915175       4.05599124
O       -0.57557601       3.94744157      12.03097437      -2.76586810       2.47919780      -0.22265758      -5.45637861       0.64437723       3.05157304
O       -0.67475684       1.51759876      12.11097825      -2.07270326      -2.29612649      -2.24628449       0.87877577      -1.62743885      -0.95320109
O        0.71908570       1.20831469       9.86140429      -1.07926742       1.01083875      -0.10505688       0.18477149      -2.78595648       1.27176695
O        3.27290814       0.08770240       9.84507625      -0.02457564      -1.64105250      -0.24644218       3.16578375      -5.78019131      -4.03571392
O       -0.88014391       4.17364234       3.18826020       0.12648347       0.26849762       2.04049402       3.71664066      -5.56772198      -1.29806683
O        0.73767548       4.30867325       1.09300186       1.35658733      -0.85171160       0.40237205       4.20207955      -0.18584890      -3.08201371
O       -3.08364930       5.41248509       3.18969706      -1.66961591       2.76828810       0.87161118       2.22435231       0.54703965       2.81163891
O       -0.76787527       7.02073603       3.16672513      -0.85016839       1.59216518       3.38066194       3.03519245       6.61393255      -1.83247393
O        0.68451060       6.78865122       1.06583705       0.34715788       2.96688400       2.40301134      -5.21233977       4.85540097       3.30154219
O       -1.37526158       5.60569708       1.10974421      -1.88586134      -0.80332859      -1.12935291      -2.39265086       1.25787628      -3.49964850
O        1.53782120       5.54541515       7.67639708      -1.29078263      -0.01251958      -1.42919654      -0.87948470      -3.71185139       1.88187205
O       -1.64441245       5.66325472       5.39393966      -0.77583304      -0.05984223       0.80957865      -3.78745654       3.96953772      -1.42106703
O       -0.62083720       6.89379387       7.73693891      -4.19727416      -3.16736180      -2.68585511       1.36738459      -1.56254658      -4.31996980
O       -0.82991167       4.28841958       7.69589439       3.81386609      -0.14323896      -3.45152964       3.05148794      -4.45119504       0.44700701
O       -1.75826727       8.28118713       5.49199532       2.09586954      -2.39871275      -3.11624848       2.06312313      -4.62004062      -3.03829984
O       -3.73801627       6.82331640       5.48806949      -1.84659142       1.64004031      -2.11268839      -2.28638758       1.36814974      -4.13034616
O       -0.79390536       6.90181309      11.92911436      -1.66070460      -1.19190645       1.65547633      -1.09949663      -2.92529501       1.87894074
O       -3.98802094       7.06698665       9.78555552      -1.18747439      -0.85252762       0.14882383      -0.98104598       2.73631140      -0.94035179
O       -2.96073861       8.18294283      12.09684490      -3.63291716      -0.98224831      -2.65704894      -6.03983125      -1.82220029       0.42103162
O       -3.18002307       5.71190728      12.05181471       2.85198719      -1.54827682      -1.51879481      -0.12601216       3.94691266      -3.37620954
O       -1.59100388       5.32058379       9.93080437       0.12939888       2.30435899      -1.43136249      -1.34204701       0.31962696      -1.32042962
O        0.91369866       4.19735718       9.79332831      -1.69451320      -0.61885718       0.70239367      -5.48041099       0.95489994      -4.68948009
O        6.33871102       0.07454096       3.37395610      -1.38132591      -3.91489556       0.99379777      -0.40425899       0.37660148       3.13560683
O        8.03636118       0.09590562       1.14065893      -1.21497883      -1.64059094      -0.66766672      -8.62732821      -2.58286805       5.22512831
O        4.10412544       1.19124661       3.23830286       0.40885373       1.37706307       0.42138225      -1.47497349       2.44280613       0.31653980
O        6.49996133       2.97637812       3.19562632      -2.31486629      -2.32488320       1.35734171      -0.79891454      -0.39538907       1.20119139
O       -1.51003386       2.63860018       1.19131876      -3.38581797       0.97966364      -0.77261665       0.38087967       1.21864847      -3.75384131
O        5.87119482       1.33712861       1.06078622      -3.21210044       0.65159869       0.47367805      -5.78211261       0.99019364       1.18691747
O        8.68644766       1.44262624       7.60376500       0.27364938      -0.52127150       0.12737090       4.33034935      -2.90529097      -1.80273648
O        5.39341556       1.54083764       5.50872708       2.77609119      -1.59628139      -1.41743917       4.98091581      -1.02452997      -2.24930239
O        6.52898639       2.62513729       7.76884042      -0.06882803       1.85161613      -1.75353033      -0.85746565       4.07762336      -1.48043747
O        6.33105317       0.12281279       7.52651007       2.75088007      -0.79068650       1.05830012       1.84414573      -3.94042592      -1.95516407
O        5.63075755       4.02823711       5.34696587      -3.50931418       1.26949710       3.42881831      -4.03568467      -0.69419950       0.97307824
O        3.21567607       2.73814095       5.40052316       1.10238959       2.29933110      -0.21447123       6.44991618       4.53999237      -2.69922127
O        6.23554668       2.77755366      12.00246638       1.46948204       1.16549726       0.37589286      -0.97707065       2.94302389       5.35300883
O        3.12979381       2.85734828       9.73560082       0.14774878       0.19048162       1.38960401       4.21117348       2.43500374       1.73233262
O        3.96396641       3.99835669      12.02447542       0.63148253       2.31360667       0.69183616       0.00608781       2.32541950      -3.11686197
O        3.91009382       1.59788071      11.98739101       2.80997123      -2.12540153       0.29653095       4.04537806      -5.50739334       0.13595016
O        5.56505437       1.28150836       9.84304851       1.37940817       0.23628330       0.52887324      -0.59203212       1.09971939       2.26440289
O        8.29394118       0.00154307       9.77947578      -2.95104896      -0.19600739       1.22800709      -4.01039904      -1.39523562       0.88763268
O        3.81214046       4.18604494       3.27303025       1.88254356       0.11218867       0.28309669       0.40895292      -1.94918819      -1.90617018
O        5.48202964       4.29146193       1.11076217       1.22594341      -1.51544035       0.01540218       2.54365184      -2.77313495      -2.36829260
O        1.61320789       5.51218910       3.24212474       1.39554215       0.78312336       2.31088195       4.82323427       3.30645655       3.06000527
O        4.16544115       7.13362984       3.35205615       1.28403194      -0.75292667      -0.50645622       0.91939715       1.03900518      -3.16349380
O        5.51220700       6.84135264       1.01600881       1.27016101       0.21019924       2.06645561       2.88705802      -4.72193868       4.75300739
O        3.32167677       5.62271924       1.15338493      -1.57627229      -0.03778961      -0.41224955      -3.77511495       0.71106596       3.66015046
O        6.34546953       5.58776202       7.70202287       0.95788451      -2.63045414      -0.02090331      -1.52513221      -1.40564344      -2.53524951
O        3.22838137       5.70916375       5.40619005      -2.12108422      -0.80700753      -0.88264368      -0.12418367      -0.45088307      -1.11793563
O        4.18068731       6.83601076       7.66822218      -2.05761570       0.19108766      -2.95481174      -4.33937598       0.01206180      -8.55258047
O        3.95065633       4.31750133       7.63468312       2.46270886      -1.54164031      -2.31205741      -2.20260372      -2.53323266      -1.30145521
O        3.11849240       8.24463821       5.45746071       0.66643939      -0.91561604       0.21714901      -0.71187420      -2.72285120       0.77363279
O        0.84810709       6.94295427       5.54905378      -0.33376508      -0.50096676      -2.51184609       4.97656841      -1.22487345       0.50613807
O        3.90493286       6.90947837      12.01423247      -0.20053081       0.07162988      -0.20325208      -2.48102845      -3.67073973      -2.95733400
O        0.81492243       7.05118593       9.88950076      -1.42659403      -0.53806694      -2.57292789      -2.78121636      -2.59810788       4.99009523
O        1.56377064       8.13670501      12.09820035       4.28730117       2.36456445       1.23105015       1.66911850      -1.46728734       1.80910805
O        1.58548164       5.69036914      12.03853151       3.57569938      -1.53227392      -1.59531591       5.06233134      -2.78295612       0.21317274
O        3.11709727       5.52926437       9.74386878       0.40446617       0.07362707       1.98847382       0.19554388       2.65660249       1.29963554
O        5.59627987       4.25453347       9.93963381       2.08555034      -1.76987990      -0.46266111       2.27106328      -0.00153023      -2.47582226